Fe
54 	 atoms 
1  atom types
0.0       7.467047609329942  xlo xhi
0.0       7.467047609329942  ylo yhi
0.0                   10.56  zlo zhi
0.0 0.0 0.0 xy xz yz
Masses

1 55.84

Atoms 

     1   1                       0                       0                       0
     2   1      1.2445079348883237      1.2445079348883237                    1.76
     3   1                       0                       0                    3.52
     4   1      1.2445079348883237      1.2445079348883237      5.2800000000000002
     5   1                       0                       0                    7.04
     6   1      1.2445079348883237      1.2445079348883237      8.8000000000000007
     7   1                       0      2.4890158697766473                       0
     8   1      1.2445079348883237       3.733523804664971                    1.76
     9   1                       0      2.4890158697766473                    3.52
    10   1      1.2445079348883237       3.733523804664971      5.2800000000000002
    11   1                       0      2.4890158697766473                    7.04
    12   1      1.2445079348883237       3.733523804664971      8.8000000000000007
    13   1                       0      4.9780317395532947                       0
    14   1      1.2445079348883237      6.2225396744416184                    1.76
    15   1                       0      4.9780317395532947                    3.52
    16   1      1.2445079348883237      6.2225396744416184      5.2800000000000002
    17   1                       0      4.9780317395532947                    7.04
    18   1      1.2445079348883237      6.2225396744416184      8.8000000000000007
    19   1      2.4890158697766473                       0                       0
    20   1       3.733523804664971      1.2445079348883237                    1.76
    21   1      2.4890158697766473                       0                    3.52
    22   1       3.733523804664971      1.2445079348883237      5.2800000000000002
    23   1      2.4890158697766473                       0                    7.04
    24   1       3.733523804664971      1.2445079348883237      8.8000000000000007
    25   1      2.4890158697766473      2.4890158697766473                       0
    26   1       3.733523804664971       3.733523804664971                    1.76
    27   1      2.4890158697766473      2.4890158697766473                    3.52
    28   1       3.733523804664971       3.733523804664971      5.2800000000000002
    29   1      2.4890158697766473      2.4890158697766473                    7.04
    30   1       3.733523804664971       3.733523804664971      8.8000000000000007
    31   1      2.4890158697766473      4.9780317395532947                       0
    32   1       3.733523804664971      6.2225396744416184                    1.76
    33   1      2.4890158697766473      4.9780317395532947                    3.52
    34   1       3.733523804664971      6.2225396744416184      5.2800000000000002
    35   1      2.4890158697766473      4.9780317395532947                    7.04
    36   1       3.733523804664971      6.2225396744416184      8.8000000000000007
    37   1      4.9780317395532947                       0                       0
    38   1      6.2225396744416184      1.2445079348883237                    1.76
    39   1      4.9780317395532947                       0                    3.52
    40   1      6.2225396744416184      1.2445079348883237      5.2800000000000002
    41   1      4.9780317395532947                       0                    7.04
    42   1      6.2225396744416184      1.2445079348883237      8.8000000000000007
    43   1      4.9780317395532947      2.4890158697766473                       0
    44   1      6.2225396744416184       3.733523804664971                    1.76
    45   1      4.9780317395532947      2.4890158697766473                    3.52
    46   1      6.2225396744416184       3.733523804664971      5.2800000000000002
    47   1      4.9780317395532947      2.4890158697766473                    7.04
    48   1      6.2225396744416184       3.733523804664971      8.8000000000000007
    49   1      4.9780317395532947      4.9780317395532947                       0
    50   1      6.2225396744416184      6.2225396744416184                    1.76
    51   1      4.9780317395532947      4.9780317395532947                    3.52
    52   1      6.2225396744416184      6.2225396744416184      5.2800000000000002
    53   1      4.9780317395532947      4.9780317395532947                    7.04
    54   1      6.2225396744416184      6.2225396744416184      8.8000000000000007
