LAMMPS (15 Jun 2023)
  using 16 OpenMP thread(s) per MPI task
Loaded 1 plugins from C:\Users\GrzegorzKaszuba\AppData\Local\LAMMPS 64-bit 15Jun2023\plugins
include init.mod
# metal units, elastic constants in GPa
units           metal
variable cfac equal 1.0e-4
variable cunits string GPa
variable up equal 1.0e-6
variable atomjiggle equal 1.0e-5


# Define minimization parameters
variable etol equal 0.0
variable ftol equal 1.0e-10
variable maxiter equal 100
variable maxeval equal 1000
variable dmax equal 1.0e-2

boundary        p p p
read_data C:\Users\GrzegorzKaszuba\PycharmProjects\cdvae-main\hydra\singlerun\2023-09-04\phase_model\localsearch_train_set_to_view\new_data\train\0\1\raw_lammps\0.data
Reading data file ...
  triclinic box = (0 0 0) to (7.6374602 7.6374602 10.801) with tilt (0 0 0)
  1 by 1 by 1 MPI processor grid
  reading atoms ...
  54 atoms
  read_data CPU = 0.001 seconds

# Need to set mass to something, just to satisfy LAMMPS
mass 1 1.0e-20
include potential.mod
# Choose potential
pair_style meam
pair_coeff * * C:\Users\GrzegorzKaszuba\PycharmProjects\cdvae-main\lammps_config\potentials\NiCrFe\library.meam Cr Fe Ni C:\Users\GrzegorzKaszuba\PycharmProjects\cdvae-main\lammps_config\potentials\NiCrFe\NiCrFe.meam Cr Fe Ni


# Setup neighbor style
neighbor 1.0 nsq
neigh_modify once no every 1 delay 0 check yes

# Setup minimization style
min_style            cg
min_modify           dmax ${dmax} line quadratic
min_modify           dmax 0.01 line quadratic

# Setup output
thermo          1
thermo_style custom step temp pe press pxx pyy pzz pxy pxz pyz lx ly lz vol
thermo_modify norm no

# Compute initial state
fix 3 all box/relax  aniso 0.0
minimize ${etol} ${ftol} ${maxiter} ${maxeval}
minimize 0 ${ftol} ${maxiter} ${maxeval}
minimize 0 1e-10 ${maxiter} ${maxeval}
minimize 0 1e-10 100 ${maxeval}
minimize 0 1e-10 100 1000
Neighbor list info ...
  update: every = 1 steps, delay = 0 steps, check = yes
  max neighbors/atom: 2000, page size: 100000
  master list distance cutoff = 5
  ghost atom cutoff = 5
  2 neighbor lists, perpetual/occasional/extra = 2 0 0
  (1) pair meam, perpetual
      attributes: full, newton on
      pair build: full/nsq
      stencil: none
      bin: none
  (2) pair meam, perpetual, half/full from (1)
      attributes: half, newton on
      pair build: halffull/newton
      stencil: none
      bin: none
WARNING: Energy due to 3 extra global DOFs will be included in minimizer energies
 (src/min.cpp:225)
Per MPI rank memory allocation (min/avg/max) = 28.75 | 28.75 | 28.75 Mbytes
   Step          Temp          PotEng         Press           Pxx            Pyy            Pzz            Pxy            Pxz            Pyz             Lx             Ly             Lz           Volume    
         0   0             -231.80301     -56197.828     -57811.244     -55630.379     -55151.86       2257.4076      1571.4276      4813.0432      7.6374602      7.6374602      10.801         630.03095    
         1   0             -231.80953     -55722.499     -57332.792     -55156.432     -54678.273      2260.0955      1574.7543      4817.3318      7.6366965      7.6367253      10.799969      629.84723    
         2   0             -231.816       -55246.507     -56853.643     -54681.842     -54204.036      2262.7864      1578.0856      4821.6225      7.6359327      7.6359905      10.798939      629.66359    
         3   0             -231.82241     -54769.853     -56373.797     -54206.611     -53729.15       2265.4802      1581.4216      4825.9153      7.635169       7.635256       10.79791       629.48001    
         4   0             -231.82876     -54292.537     -55893.254     -53730.739     -53253.617      2268.177       1584.7622      4830.21        7.6344052      7.6345216      10.79688       629.2965     
         5   0             -231.83506     -53814.56      -55412.015     -53254.229     -52777.437      2270.8767      1588.1076      4834.5066      7.6336415      7.6337874      10.795851      629.11307    
         6   0             -231.8413      -53335.925     -54930.081     -52777.081     -52300.612      2273.5795      1591.4577      4838.805       7.6328778      7.6330534      10.794822      628.92971    
         7   0             -231.84749     -52856.631     -54447.452     -52299.297     -51823.144      2276.2853      1594.8124      4843.1053      7.632114       7.6323196      10.793794      628.74642    
         8   0             -231.85362     -52376.681     -53964.13      -51820.879     -51345.034      2278.9941      1598.1719      4847.4074      7.6313503      7.631586       10.792766      628.5632     
         9   0             -231.85969     -51896.076     -53480.114     -51341.829     -50866.284      2281.7056      1601.5363      4851.711       7.6305865      7.6308526      10.791738      628.38006    
        10   0             -231.86571     -51414.816     -52995.407     -50862.148     -50386.894      2284.4197      1604.9059      4856.0163      7.6298228      7.6301195      10.790711      628.19699    
        11   0             -231.87167     -50932.905     -52510.009     -50381.837     -49906.867      2287.1366      1608.2803      4860.3233      7.629059       7.6293865      10.789684      628.014      
        12   0             -231.87757     -50450.342     -52023.921     -49900.9       -49426.205      2289.8564      1611.6596      4864.6318      7.6282953      7.6286537      10.788658      627.83108    
        13   0             -231.88342     -49967.129     -51537.141     -49419.336     -48944.909      2292.5794      1615.0427      4868.9416      7.6275315      7.6279212      10.787632      627.64824    
        14   0             -231.88922     -49483.267     -51049.673     -48937.15      -48462.98       2295.3051      1618.4305      4873.2527      7.6267678      7.6271889      10.786606      627.46548    
        15   0             -231.89496     -48998.76      -50561.519     -48454.341     -47980.42       2298.0343      1621.8231      4877.566       7.626004       7.6264568      10.785581      627.28279    
        16   0             -231.90064     -48513.609     -50072.679     -47970.914     -47497.233      2300.7669      1625.2206      4881.8814      7.6252403      7.6257249      10.784556      627.10018    
        17   0             -231.90626     -48027.814     -49583.153     -47486.87      -47013.419      2303.503       1628.6222      4886.1982      7.6244765      7.6249932      10.783531      626.91765    
        18   0             -231.91183     -47541.379     -49092.945     -47002.21      -46528.983      2306.2422      1632.0283      4890.5165      7.6237128      7.6242618      10.782507      626.7352     
        19   0             -231.91734     -47054.306     -48602.055     -46516.938     -46043.925      2308.9847      1635.4384      4894.8362      7.6229491      7.6235307      10.781484      626.55283    
        20   0             -231.9228      -46566.596     -48110.484     -46031.055     -45558.248      2311.7307      1638.8533      4899.1581      7.6221853      7.6227997      10.78046       626.37054    
        21   0             -231.9282      -46078.251     -47618.235     -45544.564     -45071.955      2314.48        1642.2727      4903.482       7.6214216      7.6220691      10.779438      626.18834    
        22   0             -231.93354     -45589.274     -47125.308     -45057.467     -44585.048      2317.2324      1645.6967      4907.8079      7.6206578      7.6213386      10.778416      626.00621    
        23   0             -231.93883     -45099.669     -46631.706     -44569.769     -44097.531      2319.9881      1649.1252      4912.1355      7.6198941      7.6206085      10.777394      625.82417    
        24   0             -231.94406     -44609.436     -46137.431     -44081.472     -43609.405      2322.7469      1652.5584      4916.4647      7.6191303      7.6198786      10.776372      625.64222    
        25   0             -231.94924     -44118.579     -45642.485     -43592.578     -43120.674      2325.509       1655.9962      4920.7957      7.6183666      7.6191489      10.775352      625.46035    
        26   0             -231.95436     -43627.1       -45146.869     -43103.092     -42631.341      2328.2744      1659.4384      4925.1284      7.6176028      7.6184196      10.774331      625.27856    
        27   0             -231.95942     -43135.003     -44650.585     -42613.015     -42141.408      2331.0423      1662.8852      4929.4623      7.6168391      7.6176905      10.773312      625.09687    
        28   0             -231.96442     -42642.289     -44153.637     -42122.352     -41650.879      2333.8133      1666.337       4933.7975      7.6160753      7.6169617      10.772292      624.91526    
        29   0             -231.96937     -42148.963     -43656.025     -41631.107     -41159.757      2336.5875      1669.7938      4938.1342      7.6153116      7.6162331      10.771274      624.73374    
        30   0             -231.97427     -41655.027     -43157.753     -41139.283     -40668.047      2339.3646      1673.2555      4942.4717      7.6145478      7.6155049      10.770255      624.55232    
        31   0             -231.97911     -41160.486     -42658.822     -40646.884     -40175.752      2342.1447      1676.7222      4946.8102      7.6137841      7.614777       10.769238      624.37098    
        32   0             -231.98389     -40665.341     -42159.235     -40153.914     -39682.875      2344.9274      1680.1939      4951.1492      7.6130204      7.6140493      10.768221      624.18974    
        33   0             -231.98861     -40169.598     -41658.995     -39660.377     -39189.42       2347.7128      1683.6703      4955.4885      7.6122566      7.613322       10.767204      624.00859    
        34   0             -231.99328     -39673.258     -41158.104     -39166.278     -38695.392      2350.5016      1687.1512      4959.8287      7.6114929      7.612595       10.766188      623.82754    
        35   0             -231.99789     -39176.326     -40656.564     -38671.621     -38200.794      2353.2941      1690.6362      4964.1695      7.6107291      7.6118683      10.765173      623.64658    
        36   0             -232.00245     -38678.807     -40154.377     -38176.412     -37705.631      2356.0901      1694.1255      4968.5111      7.6099654      7.611142       10.764158      623.46572    
        37   0             -232.00695     -38180.703     -39651.544     -37680.655     -37209.909      2358.8896      1697.6191      4972.8534      7.6092016      7.610416       10.763144      623.28496    
        38   0             -232.01139     -37682.019     -39148.072     -37184.354     -36713.631      2361.6926      1701.1165      4977.196       7.6084379      7.6096903      10.762131      623.10431    
        39   0             -232.01578     -37182.761     -38643.964     -36687.515     -36216.803      2364.4993      1704.6177      4981.5391      7.6076741      7.608965       10.761118      622.92375    
        40   0             -232.02011     -36682.932     -38139.222     -36190.144     -35719.43       2367.3099      1708.1231      4985.883       7.6069104      7.60824        10.760106      622.7433     
        41   0             -232.02439     -36182.538     -37633.852     -35692.246     -35221.517      2370.1244      1711.6327      4990.2275      7.6061466      7.6075154      10.759095      622.56295    
        42   0             -232.02861     -35681.585     -37127.856     -35193.827     -34723.071      2372.9425      1715.147       4994.5726      7.6053829      7.6067912      10.758084      622.38271    
        43   0             -232.03277     -35180.078     -36621.241     -34694.895     -34224.097      2375.7643      1718.6659      4998.9183      7.6046192      7.6060674      10.757074      622.20258    
        44   0             -232.03688     -34678.022     -36114.01      -34195.455     -33724.603      2378.5899      1722.189       5003.2646      7.6038554      7.605344       10.756065      622.02255    
        45   0             -232.04093     -34175.425     -35606.168     -33695.514     -33224.594      2381.419       1725.7162      5007.6115      7.6030917      7.6046209      10.755057      621.84264    
        46   0             -232.04493     -33672.292     -35097.719     -33195.08      -32724.078      2384.2512      1729.2473      5011.959       7.6023279      7.6038983      10.754049      621.66285    
        47   0             -232.04887     -33168.629     -34588.668     -32694.16      -32223.061      2387.0869      1732.7838      5016.3067      7.6015642      7.6031761      10.753042      621.48317    
        48   0             -232.05275     -32664.444     -34079.022     -32192.761     -31721.55       2389.926       1736.3252      5020.6545      7.6008004      7.6024544      10.752036      621.3036     
        49   0             -232.05658     -32159.745     -33568.786     -31690.893     -31219.555      2392.7686      1739.8717      5025.0019      7.6000367      7.601733       10.751031      621.12416    
        50   0             -232.06036     -31654.539     -33057.967     -31188.564     -30717.085      2395.6147      1743.4235      5029.3492      7.5992729      7.6010122      10.750027      620.94484    
        51   0             -232.06408     -31148.834     -32546.57      -30685.784     -30214.148      2398.4636      1746.9805      5033.6962      7.5985092      7.6002918      10.749024      620.76565    
        52   0             -232.06774     -30642.639     -32034.603     -30182.562     -29710.753      2401.3151      1750.5427      5038.0411      7.5977454      7.5995719      10.748021      620.58658    
        53   0             -232.07135     -30135.963     -31522.072     -29678.908     -29206.91       2404.1692      1754.1098      5042.3847      7.5969817      7.5988525      10.74702       620.40764    
        54   0             -232.0749      -29628.815     -31008.985     -29174.832     -28702.629      2407.0265      1757.6817      5046.7268      7.5962179      7.5981336      10.746019      620.22884    
        55   0             -232.0784      -29121.204     -30495.346     -28670.346     -28197.921      2409.887       1761.2585      5051.0673      7.5954542      7.5974152      10.74502       620.05017    
        56   0             -232.08184     -28613.14      -29981.165     -28165.46      -27692.796      2412.7505      1764.8402      5055.4057      7.5946905      7.5966973      10.744021      619.87164    
        57   0             -232.08523     -28104.634     -29466.448     -27660.188     -27187.267      2415.6173      1768.4264      5059.7424      7.5939267      7.59598        10.743024      619.69325    
        58   0             -232.08856     -27595.698     -28951.206     -27154.542     -26681.347      2418.4869      1772.0166      5064.0768      7.593163       7.5952633      10.742028      619.515      
        59   0             -232.09184     -27086.343     -28435.447     -26648.534     -26175.049      2421.3602      1775.6106      5068.4088      7.5923992      7.5945471      10.741033      619.33691    
        60   0             -232.09507     -26576.581     -27919.18      -26142.18      -25668.385      2424.238       1779.2075      5072.7375      7.5916355      7.5938316      10.740039      619.15896    
        61   0             -232.09824     -26066.427     -27402.416     -25635.494     -25161.37       2427.1192      1782.8084      5077.0637      7.5908717      7.5931166      10.739046      618.98117    
        62   0             -232.10136     -25555.894     -26885.168     -25128.492     -24654.022      2430.004       1786.4131      5081.3871      7.590108       7.5924024      10.738055      618.80354    
        63   0             -232.10442     -25044.998     -26367.446     -24621.192     -24146.355      2432.8923      1790.0216      5085.7074      7.5893442      7.5916887      10.737065      618.62607    
        64   0             -232.10743     -24533.754     -25849.264     -24113.61      -23638.388      2435.784       1793.6339      5090.0243      7.5885805      7.5909758      10.736076      618.44877    
        65   0             -232.11039     -24022.179     -25330.633     -23605.765     -23130.14       2438.6796      1797.2489      5094.3384      7.5878167      7.5902635      10.735089      618.27164    
        66   0             -232.11329     -23510.292     -24811.569     -23097.678     -22621.629      2441.5785      1800.8668      5098.6493      7.587053       7.589552       10.734103      618.09469    
        67   0             -232.11614     -22998.11      -24292.088     -22589.368     -22112.876      2444.481       1804.4882      5102.9568      7.5862892      7.5888413      10.733118      617.91792    
        68   0             -232.11894     -22485.654     -23772.203     -22080.857     -21603.901      2447.3868      1808.1132      5107.2602      7.5855255      7.5881313      10.732136      617.74134    
        69   0             -232.12169     -21972.943     -23251.934     -21572.168     -21094.728      2450.2966      1811.7419      5111.5603      7.5847618      7.5874221      10.731154      617.56495    
        70   0             -232.12438     -21460.003     -22731.298     -21063.329     -20585.383      2453.2101      1815.3735      5115.8565      7.583998       7.5867138      10.730175      617.38876    
        71   0             -232.12703     -20946.857     -22210.315     -20554.364     -20075.892      2456.1271      1819.0077      5120.1478      7.5832343      7.5860064      10.729197      617.21278    
        72   0             -232.12962     -20433.531     -21689.005     -20045.303     -19566.284      2459.0473      1822.645       5124.4344      7.5824705      7.5852998      10.728221      617.03701    
        73   0             -232.13216     -19920.052     -21167.394     -19536.176     -19056.587      2461.971       1826.2852      5128.7155      7.5817068      7.5845942      10.727248      616.86146    
        74   0             -232.13465     -19406.451     -20645.502     -19027.015     -18546.835      2464.8983      1829.928       5132.9909      7.580943       7.5838896      10.726276      616.68614    
        75   0             -232.13709     -18892.755     -20123.353     -18517.854     -18037.059      2467.8288      1833.5735      5137.2603      7.5801793      7.583186       10.725306      616.51105    
        76   0             -232.13949     -18379.002     -19600.977     -18008.731     -17527.299      2470.7628      1837.2213      5141.5228      7.5794155      7.5824835      10.724338      616.33622    
        77   0             -232.14183     -17865.227     -19078.403     -17499.685     -17017.594      2473.7006      1840.8708      5145.7781      7.5786518      7.581782       10.723373      616.16163    
        78   0             -232.14412     -17351.471     -18555.662     -16990.762     -16507.988      2476.6418      1844.5223      5150.0263      7.577888       7.5810818      10.72241       615.98732    
        79   0             -232.14637     -16837.774     -18032.79      -16482.005     -15998.526      2479.5872      1848.1748      5154.2667      7.5771243      7.5803827      10.721449      615.81328    
        80   0             -232.14858     -16324.182     -17509.822     -15973.466     -15489.258      2482.5369      1851.8275      5158.4983      7.5763605      7.579685       10.720492      615.63953    
        81   0             -232.15073     -15810.744     -16986.798     -15465.197     -14980.237      2485.4911      1855.48        5162.72        7.5755968      7.5789886      10.719537      615.46608    
        82   0             -232.15284     -15297.514     -16463.76      -14957.258     -14471.523      2488.4501      1859.1317      5166.9315      7.5748331      7.5782935      10.718585      615.29295    
        83   0             -232.15491     -14784.548     -15940.756     -14449.712     -13963.178      2491.4137      1862.7823      5171.1317      7.5740693      7.5776         10.717636      615.12015    
        84   0             -232.15693     -14271.913     -15417.839     -13942.628     -13455.272      2494.3826      1866.4315      5175.3203      7.5733056      7.576908       10.71669       614.94769    
        85   0             -232.15892     -13759.677     -14895.067     -13436.082     -12947.883      2497.3566      1870.0779      5179.4959      7.5725418      7.5762177      10.715748      614.77561    
        86   0             -232.16086     -13247.918     -14372.502     -12930.158     -12441.093      2500.3365      1873.7206      5183.6588      7.5717781      7.5755291      10.71481       614.60391    
        87   0             -232.16276     -12736.717     -13850.213     -12424.946     -11934.993      2503.3222      1877.3594      5187.8075      7.5710143      7.5748423      10.713876      614.43262    
        88   0             -232.16463     -12226.168     -13328.274     -11920.545     -11429.684      2506.3139      1880.9936      5191.9408      7.5702506      7.5741575      10.712945      614.26176    
        89   0             -232.16646     -11716.371     -12806.77      -11417.066     -10925.277      2509.3116      1884.6222      5196.0575      7.5694868      7.5734748      10.71202       614.09136    
        90   0             -232.16825     -11207.439     -12285.793     -10914.631     -10421.895      2512.3159      1888.2446      5200.1564      7.5687231      7.5727943      10.711099      613.92145    
        91   0             -232.17002     -10699.498     -11765.445     -10413.375     -9919.6741      2515.3272      1891.8598      5204.2364      7.5679593      7.5721161      10.710183      613.75206    
        92   0             -232.17175     -10192.686     -11245.842     -9913.4495     -9418.7676      2518.3465      1895.466       5208.2954      7.5671956      7.5714405      10.709273      613.58323    
        93   0             -232.17346     -9687.1626     -10727.114     -9415.0254     -8919.3484      2521.3741      1899.0621      5212.3322      7.5664318      7.5707676      10.708369      613.41499    
        94   0             -232.17514     -9183.1035     -10209.406     -8918.2942     -8421.6101      2524.4102      1902.6473      5216.3449      7.5656681      7.5700977      10.707472      613.2474     
        95   0             -232.17681     -8680.7095     -9692.8849     -8423.4719     -7925.7718      2527.4551      1906.2196      5220.3315      7.5649044      7.5694309      10.706582      613.08051    
        96   0             -232.17846     -8180.2084     -9177.7386     -7930.8042     -7432.0823      2530.5097      1909.7766      5224.2906      7.5641406      7.5687676      10.705699      612.91437    
        97   0             -232.18009     -7681.863      -8664.1851     -7440.5744     -6940.8294      2533.5754      1913.3178      5228.2182      7.5633769      7.568108       10.704825      612.74905    
        98   0             -232.18173     -7185.9763     -8152.4759     -6953.108      -6452.345       2536.6527      1916.8398      5232.1102      7.5626131      7.5674525      10.703961      612.58463    
        99   0             -232.18336     -6692.8993     -7642.9028     -6468.7814     -5967.0136      2539.7428      1920.3397      5235.9626      7.5618494      7.5668016      10.703107      612.4212     
       100   0             -232.185       -6203.041      -7135.8036     -5988.0355     -5485.2839      2542.847       1923.8142      5239.7702      7.5610856      7.5661556      10.702264      612.25887    
Loop time of 0.060893 on 16 procs for 100 steps with 54 atoms

102.6% CPU use with 1 MPI tasks x 16 OpenMP threads

Minimization stats:
  Stopping criterion = max iterations
  Energy initial, next-to-last, final = 
     -231.803009314073  -232.183358019311  -232.184999445513
  Force two-norm initial, final = 38.585638 6.8090963
  Force max component initial, final = 22.733371 2.7544343
  Final line search alpha, max atom move = 3.3890726e-05 9.3349776e-05
  Iterations, force evaluations = 100 100

MPI task timing breakdown:
Section |  min time  |  avg time  |  max time  |%varavg| %total
---------------------------------------------------------------
Pair    | 0.035919   | 0.035919   | 0.035919   |   0.0 | 58.99
Neigh   | 0          | 0          | 0          |   0.0 |  0.00
Comm    | 0.000143   | 0.000143   | 0.000143   |   0.0 |  0.23
Output  | 0.001241   | 0.001241   | 0.001241   |   0.0 |  2.04
Modify  | 0          | 0          | 0          |   0.0 |  0.00
Other   |            | 0.02359    |            |       | 38.74

Nlocal:             54 ave          54 max          54 min
Histogram: 1 0 0 0 0 0 0 0 0 0
Nghost:            437 ave         437 max         437 min
Histogram: 1 0 0 0 0 0 0 0 0 0
Neighs:           1135 ave        1135 max        1135 min
Histogram: 1 0 0 0 0 0 0 0 0 0
FullNghs:         2270 ave        2270 max        2270 min
Histogram: 1 0 0 0 0 0 0 0 0 0

Total # of neighbors = 2270
Ave neighs/atom = 42.037037
Neighbor list builds = 0
Dangerous builds = 0

variable tmp equal pxx
variable pxx0 equal ${tmp}
variable pxx0 equal -7135.80355233022
variable tmp equal pyy
variable pyy0 equal ${tmp}
variable pyy0 equal -5988.03545296382
variable tmp equal pzz
variable pzz0 equal ${tmp}
variable pzz0 equal -5485.28393876493
variable tmp equal pyz
variable pyz0 equal ${tmp}
variable pyz0 equal 5239.77015999752
variable tmp equal pxz
variable pxz0 equal ${tmp}
variable pxz0 equal 1923.8142084902
variable tmp equal pxy
variable pxy0 equal ${tmp}
variable pxy0 equal 2542.84701678597

variable tmp equal lx
variable lx0 equal ${tmp}
variable lx0 equal 7.56108562769996
variable tmp equal ly
variable ly0 equal ${tmp}
variable ly0 equal 7.56615557177767
variable tmp equal lz
variable lz0 equal ${tmp}
variable lz0 equal 10.7022639784719

# These formulas define the derivatives w.r.t. strain components
# Constants uses $, variables use v_
variable d1 equal -(v_pxx1-${pxx0})/(v_delta/v_len0)*${cfac}
variable d1 equal -(v_pxx1--7135.80355233022)/(v_delta/v_len0)*${cfac}
variable d1 equal -(v_pxx1--7135.80355233022)/(v_delta/v_len0)*0.0001
variable d2 equal -(v_pyy1-${pyy0})/(v_delta/v_len0)*${cfac}
variable d2 equal -(v_pyy1--5988.03545296382)/(v_delta/v_len0)*${cfac}
variable d2 equal -(v_pyy1--5988.03545296382)/(v_delta/v_len0)*0.0001
variable d3 equal -(v_pzz1-${pzz0})/(v_delta/v_len0)*${cfac}
variable d3 equal -(v_pzz1--5485.28393876493)/(v_delta/v_len0)*${cfac}
variable d3 equal -(v_pzz1--5485.28393876493)/(v_delta/v_len0)*0.0001
variable d4 equal -(v_pyz1-${pyz0})/(v_delta/v_len0)*${cfac}
variable d4 equal -(v_pyz1-5239.77015999752)/(v_delta/v_len0)*${cfac}
variable d4 equal -(v_pyz1-5239.77015999752)/(v_delta/v_len0)*0.0001
variable d5 equal -(v_pxz1-${pxz0})/(v_delta/v_len0)*${cfac}
variable d5 equal -(v_pxz1-1923.8142084902)/(v_delta/v_len0)*${cfac}
variable d5 equal -(v_pxz1-1923.8142084902)/(v_delta/v_len0)*0.0001
variable d6 equal -(v_pxy1-${pxy0})/(v_delta/v_len0)*${cfac}
variable d6 equal -(v_pxy1-2542.84701678597)/(v_delta/v_len0)*${cfac}
variable d6 equal -(v_pxy1-2542.84701678597)/(v_delta/v_len0)*0.0001

displace_atoms all random ${atomjiggle} ${atomjiggle} ${atomjiggle} 87287 units box
displace_atoms all random 1e-05 ${atomjiggle} ${atomjiggle} 87287 units box
displace_atoms all random 1e-05 1e-05 ${atomjiggle} 87287 units box
displace_atoms all random 1e-05 1e-05 1e-05 87287 units box
Displacing atoms ...

# Write restart
unfix 3
write_restart restart.equil
System init for write_restart ...

# uxx Perturbation

variable dir equal 1
include displace.mod
# NOTE: This script should not need to be
# modified. See in.elastic for more info.
#
# Find which reference length to use

if "${dir} == 1" then    "variable len0 equal ${lx0}"
variable len0 equal ${lx0}
variable len0 equal 7.56108562769996
if "${dir} == 2" then    "variable len0 equal ${ly0}"
if "${dir} == 3" then    "variable len0 equal ${lz0}"
if "${dir} == 4" then    "variable len0 equal ${lz0}"
if "${dir} == 5" then    "variable len0 equal ${lz0}"
if "${dir} == 6" then    "variable len0 equal ${ly0}"

# Reset box and simulation parameters

clear
  using 16 OpenMP thread(s) per MPI task
Loaded 1 plugins from C:\Users\GrzegorzKaszuba\AppData\Local\LAMMPS 64-bit 15Jun2023\plugins
box tilt large

The 'box' command has been removed and will be ignored

read_restart restart.equil
Reading restart file ...
  restart file = 15 Jun 2023, LAMMPS = 15 Jun 2023
  restoring atom style atomic from restart
  triclinic box = (0.038187301 0.035652329 0.049367936) to (7.5992729 7.6018079 10.751632) with tilt (0 0 0)
  1 by 1 by 1 MPI processor grid
  pair style meam stores no restart info
  54 atoms
  read_restart CPU = 0.001 seconds
include potential.mod
# Choose potential
pair_style meam
pair_coeff * * C:\Users\GrzegorzKaszuba\PycharmProjects\cdvae-main\lammps_config\potentials\NiCrFe\library.meam Cr Fe Ni C:\Users\GrzegorzKaszuba\PycharmProjects\cdvae-main\lammps_config\potentials\NiCrFe\NiCrFe.meam Cr Fe Ni


# Setup neighbor style
neighbor 1.0 nsq
neigh_modify once no every 1 delay 0 check yes

# Setup minimization style
min_style            cg
min_modify           dmax ${dmax} line quadratic
min_modify           dmax 0.01 line quadratic

# Setup output
thermo          1
thermo_style custom step temp pe press pxx pyy pzz pxy pxz pyz lx ly lz vol
thermo_modify norm no

# Negative deformation

variable delta equal -${up}*${len0}
variable delta equal -1e-06*${len0}
variable delta equal -1e-06*7.56108562769996
variable deltaxy equal -${up}*xy
variable deltaxy equal -1e-06*xy
variable deltaxz equal -${up}*xz
variable deltaxz equal -1e-06*xz
variable deltayz equal -${up}*yz
variable deltayz equal -1e-06*yz
if "${dir} == 1" then    "change_box all x delta 0 ${delta} xy delta ${deltaxy} xz delta ${deltaxz} remap units box"
change_box all x delta 0 ${delta} xy delta ${deltaxy} xz delta ${deltaxz} remap units box
change_box all x delta 0 -7.56108562769996e-06 xy delta ${deltaxy} xz delta ${deltaxz} remap units box
change_box all x delta 0 -7.56108562769996e-06 xy delta -0 xz delta ${deltaxz} remap units box
change_box all x delta 0 -7.56108562769996e-06 xy delta -0 xz delta -0 remap units box
Changing box ...
  triclinic box = (0.038187301 0.035652329 0.049367936) to (7.5992654 7.6018079 10.751632) with tilt (0 0 0)
  triclinic box = (0.038187301 0.035652329 0.049367936) to (7.5992654 7.6018079 10.751632) with tilt (0 0 0)
  triclinic box = (0.038187301 0.035652329 0.049367936) to (7.5992654 7.6018079 10.751632) with tilt (0 0 0)
if "${dir} == 2" then    "change_box all y delta 0 ${delta} yz delta ${deltayz} remap units box"
if "${dir} == 3" then    "change_box all z delta 0 ${delta} remap units box"
if "${dir} == 4" then    "change_box all yz delta ${delta} remap units box"
if "${dir} == 5" then    "change_box all xz delta ${delta} remap units box"
if "${dir} == 6" then    "change_box all xy delta ${delta} remap units box"

# Relax atoms positions

minimize ${etol} ${ftol} ${maxiter} ${maxeval}
minimize 0 ${ftol} ${maxiter} ${maxeval}
minimize 0 1e-10 ${maxiter} ${maxeval}
minimize 0 1e-10 100 ${maxeval}
minimize 0 1e-10 100 1000
Neighbor list info ...
  update: every = 1 steps, delay = 0 steps, check = yes
  max neighbors/atom: 2000, page size: 100000
  master list distance cutoff = 5
  ghost atom cutoff = 5
  2 neighbor lists, perpetual/occasional/extra = 2 0 0
  (1) pair meam, perpetual
      attributes: full, newton on
      pair build: full/nsq
      stencil: none
      bin: none
  (2) pair meam, perpetual, half/full from (1)
      attributes: half, newton on
      pair build: halffull/newton
      stencil: none
      bin: none
Per MPI rank memory allocation (min/avg/max) = 28.77 | 28.77 | 28.77 Mbytes
   Step          Temp          PotEng         Press           Pxx            Pyy            Pzz            Pxy            Pxz            Pyz             Lx             Ly             Lz           Volume    
       100   0             -232.18498     -6200.9263     -7132.3087     -5986.8599     -5483.6102      2542.9057      1923.6082      5239.6471      7.5610781      7.5661556      10.702264      612.25825    
       101   0             -232.41754     -8596.0171     -9818.9796     -8324.5971     -7644.4747      2667.3154      1894.047       5168.9288      7.5610781      7.5661556      10.702264      612.25825    
       102   0             -232.62267     -10694.076     -12164.387     -10368.59      -9549.2498      2795.5639      1843.5995      5086.6702      7.5610781      7.5661556      10.702264      612.25825    
       103   0             -232.80327     -12525.424     -14202.057     -12145.807     -11228.408      2926.741       1774.4428      4995.014       7.5610781      7.5661556      10.702264      612.25825    
       104   0             -232.96204     -14116.458     -15958.877     -13680.756     -12709.74       3059.5493      1689.5869      4895.6275      7.5610781      7.5661556      10.702264      612.25825    
       105   0             -233.10148     -15491.068     -17458.692     -14994.821     -14019.691      3192.2202      1592.7983      4790.5344      7.5610781      7.5661556      10.702264      612.25825    
       106   0             -233.22396     -16671.972     -18725.653     -16107.731     -15182.533      3324.0398      1488.5548      4681.8684      7.5610781      7.5661556      10.702264      612.25825    
       107   0             -233.33167     -17680.501     -19783.284     -17037.48      -16220.738      3454.7652      1380.527       4571.8257      7.5610781      7.5661556      10.702264      612.25825    
       108   0             -233.42613     -18532.735     -20649.451     -17797.471     -17151.284      3583.3215      1273.4466      4464.2988      7.5610781      7.5661556      10.702264      612.25825    
       109   0             -233.5061      -19223.426     -21321.262     -18386.092     -17962.923      3703.2559      1176.0039      4367.3584      7.5610781      7.5661556      10.702264      612.25825    
       110   0             -233.57412     -19784.895     -21837.691     -18837.386     -18679.608      3813.3382      1090.7417      4283.9864      7.5610781      7.5661556      10.702264      612.25825    
       111   0             -233.63225     -20244.711     -22233.415     -19181.259     -19319.459      3912.971       1018.2157      4215.4446      7.5610781      7.5661556      10.702264      612.25825    
       112   0             -233.68215     -20625.386     -22537.56      -19443.039     -19895.56       4002.1818      957.27053      4161.3007      7.5610781      7.5661556      10.702264      612.25825    
       113   0             -233.72511     -20944.673     -22773.446     -19643.466     -20417.108      4081.3221      905.47849      4119.9199      7.5610781      7.5661556      10.702264      612.25825    
       114   0             -233.76216     -21216.379     -22959.252     -19799.368     -20890.516      4150.7705      859.98574      4088.8409      7.5610781      7.5661556      10.702264      612.25825    
       115   0             -233.79414     -21450.992     -23108.234     -19924.119     -21320.623      4210.9039      818.0582       4065.1567      7.5610781      7.5661556      10.702264      612.25825    
       116   0             -233.82175     -21656.572     -23229.702     -20028.373     -21711.639      4261.9654      777.46024      4045.7625      7.5610781      7.5661556      10.702264      612.25825    
       117   0             -233.84535     -21837.349     -23328.704     -20119.417     -22063.925      4303.3678      737.0105       4027.7716      7.5610781      7.5661556      10.702264      612.25825    
       118   0             -233.86519     -21995.124     -23407.558     -20201.749     -22376.066      4334.5762      696.85214      4008.6514      7.5610781      7.5661556      10.702264      612.25825    
       119   0             -233.88192     -22133.657     -23468.46      -20278.947     -22653.564      4356.1555      657.34844      3986.0362      7.5610781      7.5661556      10.702264      612.25825    
       120   0             -233.89609     -22255.177     -23511.807     -20352.406     -22901.319      4368.4433      619.41588      3958.142       7.5610781      7.5661556      10.702264      612.25825    
       121   0             -233.90812     -22360.609     -23536.655     -20421.661     -23123.509      4371.6771      584.2459       3923.5812      7.5610781      7.5661556      10.702264      612.25825    
       122   0             -233.91836     -22449.695     -23540.93      -20484.652     -23323.504      4365.9698      553.07285      3881.3373      7.5610781      7.5661556      10.702264      612.25825    
       123   0             -233.92706     -22520.993     -23521.219     -20537.675     -23504.084      4351.0635      527.05775      3830.8016      7.5610781      7.5661556      10.702264      612.25825    
       124   0             -233.93439     -22571.505     -23472.293     -20575.167     -23667.055      4326.2816      507.13698      3771.9532      7.5610781      7.5661556      10.702264      612.25825    
       125   0             -233.94042     -22595.813     -23385.419     -20588.885     -23813.134      4290.1078      493.99621      3705.9788      7.5610781      7.5661556      10.702264      612.25825    
       126   0             -233.94509     -22583.403     -23243.846     -20565.462     -23940.901      4239.6872      488.15012      3637.1075      7.5610781      7.5661556      10.702264      612.25825    
       127   0             -233.94778     -22518.184     -23033.576     -20490.114     -24030.864      4179.281       490.87025      3587.7238      7.5610781      7.5661556      10.702264      612.25825    
       128   0             -233.94833     -22452.728     -22888.709     -20441.349     -24028.127      4179.8174      499.3946       3612.6746      7.5610781      7.5661556      10.702264      612.25825    
       129   0             -233.94836     -22455.168     -22897.892     -20467.719     -23999.893      4219.4346      495.77208      3602.604       7.5610781      7.5661556      10.702264      612.25825    
       130   0             -233.94837     -22462.369     -22909.057     -20483.742     -23994.31       4235.8908      488.34017      3589.9073      7.5610781      7.5661556      10.702264      612.25825    
       131   0             -233.94838     -22460.754     -22921.563     -20477.548     -23983.149      4251.7127      492.74656      3597.6737      7.5610781      7.5661556      10.702264      612.25825    
       132   0             -233.94838     -22457.246     -22915.373     -20480.636     -23975.729      4259.9813      490.29279      3601.2035      7.5610781      7.5661556      10.702264      612.25825    
       133   0             -233.94838     -22454.316     -22913.842     -20475.378     -23973.726      4264.7253      491.52031      3599.7412      7.5610781      7.5661556      10.702264      612.25825    
       134   0             -233.94838     -22451.518     -22912.368     -20469.58      -23972.605      4266.1477      493.23027      3597.6033      7.5610781      7.5661556      10.702264      612.25825    
       135   0             -233.94838     -22449.574     -22909.982     -20467.754     -23970.986      4269.2347      494.49908      3597.7031      7.5610781      7.5661556      10.702264      612.25825    
       136   0             -233.94838     -22448.285     -22908.689     -20466.364     -23969.802      4271.3287      494.01407      3596.8798      7.5610781      7.5661556      10.702264      612.25825    
       137   0             -233.94838     -22447.611     -22908.071     -20465.318     -23969.444      4273.2271      493.89505      3596.1768      7.5610781      7.5661556      10.702264      612.25825    
       138   0             -233.94838     -22447.089     -22907.76      -20464.658     -23968.849      4274.5526      494.51869      3596.1521      7.5610781      7.5661556      10.702264      612.25825    
       139   0             -233.94838     -22446.635     -22906.872     -20464.233     -23968.801      4275.2939      494.40022      3596.3842      7.5610781      7.5661556      10.702264      612.25825    
       140   0             -233.94838     -22446.222     -22906.031     -20463.986     -23968.648      4276.0473      494.6469       3596.4784      7.5610781      7.5661556      10.702264      612.25825    
       141   0             -233.94838     -22446.079     -22905.811     -20463.875     -23968.55       4276.3652      494.64958      3596.4619      7.5610781      7.5661556      10.702264      612.25825    
       142   0             -233.94838     -22446.066     -22905.624     -20464.053     -23968.521      4276.4731      494.66776      3596.399       7.5610781      7.5661556      10.702264      612.25825    
       143   0             -233.94838     -22446.051     -22905.654     -20464.123     -23968.376      4276.6876      494.65552      3596.3868      7.5610781      7.5661556      10.702264      612.25825    
       144   0             -233.94839     -22446.032     -22905.631     -20464.042     -23968.424      4276.7222      494.73228      3596.4336      7.5610781      7.5661556      10.702264      612.25825    
       145   0             -233.94839     -22446.02      -22905.584     -20464.034     -23968.44       4276.7208      494.72591      3596.4314      7.5610781      7.5661556      10.702264      612.25825    
       146   0             -233.94839     -22446.026     -22905.589     -20464.04      -23968.45       4276.7416      494.72626      3596.3984      7.5610781      7.5661556      10.702264      612.25825    
       147   0             -233.94839     -22446.031     -22905.593     -20464.028     -23968.471      4276.7406      494.73841      3596.3847      7.5610781      7.5661556      10.702264      612.25825    
       148   0             -233.94839     -22446.028     -22905.6       -20464.022     -23968.463      4276.7497      494.73654      3596.3666      7.5610781      7.5661556      10.702264      612.25825    
       149   0             -233.94839     -22446.024     -22905.599     -20464.016     -23968.459      4276.7585      494.73704      3596.3669      7.5610781      7.5661556      10.702264      612.25825    
       150   0             -233.94839     -22446.023     -22905.596     -20464.018     -23968.456      4276.762       494.73467      3596.3635      7.5610781      7.5661556      10.702264      612.25825    
       151   0             -233.94839     -22446.022     -22905.597     -20464.017     -23968.453      4276.7646      494.73415      3596.3586      7.5610781      7.5661556      10.702264      612.25825    
       152   0             -233.94839     -22446.021     -22905.595     -20464.016     -23968.453      4276.7675      494.7344       3596.3572      7.5610781      7.5661556      10.702264      612.25825    
       153   0             -233.94839     -22446.021     -22905.595     -20464.017     -23968.451      4276.7722      494.73525      3596.357       7.5610781      7.5661556      10.702264      612.25825    
       154   0             -233.94839     -22446.021     -22905.595     -20464.017     -23968.451      4276.7745      494.73485      3596.3571      7.5610781      7.5661556      10.702264      612.25825    
       155   0             -233.94839     -22446.02      -22905.594     -20464.016     -23968.451      4276.7758      494.73604      3596.3572      7.5610781      7.5661556      10.702264      612.25825    
       156   0             -233.94839     -22446.02      -22905.594     -20464.015     -23968.45       4276.7764      494.73597      3596.3567      7.5610781      7.5661556      10.702264      612.25825    
       157   0             -233.94839     -22446.019     -22905.593     -20464.015     -23968.449      4276.7773      494.73563      3596.3568      7.5610781      7.5661556      10.702264      612.25825    
       158   0             -233.94839     -22446.019     -22905.593     -20464.015     -23968.449      4276.7779      494.73558      3596.3568      7.5610781      7.5661556      10.702264      612.25825    
       159   0             -233.94839     -22446.018     -22905.593     -20464.014     -23968.448      4276.7785      494.73563      3596.3567      7.5610781      7.5661556      10.702264      612.25825    
       160   0             -233.94839     -22446.018     -22905.592     -20464.014     -23968.448      4276.7788      494.73565      3596.3568      7.5610781      7.5661556      10.702264      612.25825    
       161   0             -233.94839     -22446.018     -22905.592     -20464.014     -23968.448      4276.7789      494.73572      3596.3569      7.5610781      7.5661556      10.702264      612.25825    
       162   0             -233.94839     -22446.018     -22905.592     -20464.014     -23968.448      4276.7789      494.73575      3596.3569      7.5610781      7.5661556      10.702264      612.25825    
       163   0             -233.94839     -22446.018     -22905.592     -20464.014     -23968.448      4276.7789      494.73579      3596.3569      7.5610781      7.5661556      10.702264      612.25825    
       164   0             -233.94839     -22446.018     -22905.592     -20464.014     -23968.448      4276.7789      494.73581      3596.3569      7.5610781      7.5661556      10.702264      612.25825    
       165   0             -233.94839     -22446.018     -22905.592     -20464.014     -23968.448      4276.7789      494.73583      3596.3569      7.5610781      7.5661556      10.702264      612.25825    
       166   0             -233.94839     -22446.018     -22905.592     -20464.014     -23968.448      4276.7789      494.73582      3596.3569      7.5610781      7.5661556      10.702264      612.25825    
       167   0             -233.94839     -22446.018     -22905.592     -20464.014     -23968.448      4276.7789      494.73582      3596.3569      7.5610781      7.5661556      10.702264      612.25825    
       168   0             -233.94839     -22446.018     -22905.592     -20464.014     -23968.448      4276.7789      494.73583      3596.3569      7.5610781      7.5661556      10.702264      612.25825    
       169   0             -233.94839     -22446.018     -22905.592     -20464.014     -23968.448      4276.7789      494.73582      3596.3569      7.5610781      7.5661556      10.702264      612.25825    
       170   0             -233.94839     -22446.018     -22905.592     -20464.014     -23968.448      4276.7789      494.73583      3596.3569      7.5610781      7.5661556      10.702264      612.25825    
       171   0             -233.94839     -22446.018     -22905.592     -20464.014     -23968.448      4276.7789      494.73583      3596.3569      7.5610781      7.5661556      10.702264      612.25825    
       172   0             -233.94839     -22446.018     -22905.592     -20464.014     -23968.448      4276.7789      494.73583      3596.3569      7.5610781      7.5661556      10.702264      612.25825    
       173   0             -233.94839     -22446.018     -22905.592     -20464.014     -23968.448      4276.7789      494.73583      3596.3569      7.5610781      7.5661556      10.702264      612.25825    
       174   0             -233.94839     -22446.018     -22905.592     -20464.014     -23968.448      4276.7789      494.73583      3596.3569      7.5610781      7.5661556      10.702264      612.25825    
       175   0             -233.94839     -22446.018     -22905.592     -20464.014     -23968.448      4276.7789      494.73583      3596.3569      7.5610781      7.5661556      10.702264      612.25825    
       176   0             -233.94839     -22446.018     -22905.592     -20464.014     -23968.448      4276.7789      494.73583      3596.3569      7.5610781      7.5661556      10.702264      612.25825    
       177   0             -233.94839     -22446.018     -22905.592     -20464.014     -23968.448      4276.7789      494.73583      3596.3569      7.5610781      7.5661556      10.702264      612.25825    
       178   0             -233.94839     -22446.018     -22905.592     -20464.014     -23968.448      4276.7789      494.73583      3596.3569      7.5610781      7.5661556      10.702264      612.25825    
       179   0             -233.94839     -22446.018     -22905.592     -20464.014     -23968.448      4276.7789      494.73583      3596.3569      7.5610781      7.5661556      10.702264      612.25825    
       180   0             -233.94839     -22446.018     -22905.592     -20464.014     -23968.448      4276.7789      494.73583      3596.3569      7.5610781      7.5661556      10.702264      612.25825    
Loop time of 0.057445 on 16 procs for 80 steps with 54 atoms

81.6% CPU use with 1 MPI tasks x 16 OpenMP threads

Minimization stats:
  Stopping criterion = force tolerance
  Energy initial, next-to-last, final = 
      -232.18498113735  -233.948385000461  -233.948385000461
  Force two-norm initial, final = 5.3821581 7.0485399e-11
  Force max component initial, final = 1.1826299 1.5972834e-11
  Final line search alpha, max atom move = 1 1.5972834e-11
  Iterations, force evaluations = 80 133

MPI task timing breakdown:
Section |  min time  |  avg time  |  max time  |%varavg| %total
---------------------------------------------------------------
Pair    | 0.056426   | 0.056426   | 0.056426   |   0.0 | 98.23
Neigh   | 0          | 0          | 0          |   0.0 |  0.00
Comm    | 0.000177   | 0.000177   | 0.000177   |   0.0 |  0.31
Output  | 0.000663   | 0.000663   | 0.000663   |   0.0 |  1.15
Modify  | 0          | 0          | 0          |   0.0 |  0.00
Other   |            | 0.000179   |            |       |  0.31

Nlocal:             54 ave          54 max          54 min
Histogram: 1 0 0 0 0 0 0 0 0 0
Nghost:            481 ave         481 max         481 min
Histogram: 1 0 0 0 0 0 0 0 0 0
Neighs:           1175 ave        1175 max        1175 min
Histogram: 1 0 0 0 0 0 0 0 0 0
FullNghs:         2350 ave        2350 max        2350 min
Histogram: 1 0 0 0 0 0 0 0 0 0

Total # of neighbors = 2350
Ave neighs/atom = 43.518519
Neighbor list builds = 0
Dangerous builds = 0

# Obtain new stress tensor

variable tmp equal pxx
variable pxx1 equal ${tmp}
variable pxx1 equal -22905.592211278
variable tmp equal pyy
variable pyy1 equal ${tmp}
variable pyy1 equal -20464.014226778
variable tmp equal pzz
variable pzz1 equal ${tmp}
variable pzz1 equal -23968.4481142568
variable tmp equal pxy
variable pxy1 equal ${tmp}
variable pxy1 equal 4276.77893939524
variable tmp equal pxz
variable pxz1 equal ${tmp}
variable pxz1 equal 494.735827065982
variable tmp equal pyz
variable pyz1 equal ${tmp}
variable pyz1 equal 3596.35690628657

# Compute elastic constant from pressure tensor

variable C1neg equal ${d1}
variable C1neg equal -1576978.86589478
variable C2neg equal ${d2}
variable C2neg equal -1447597.87738142
variable C3neg equal ${d3}
variable C3neg equal -1848316.41754919
variable C4neg equal ${d4}
variable C4neg equal -164341.325371095
variable C5neg equal ${d5}
variable C5neg equal -142907.838142422
variable C6neg equal ${d6}
variable C6neg equal 173393.192260927

# Reset box and simulation parameters

clear
  using 16 OpenMP thread(s) per MPI task
Loaded 1 plugins from C:\Users\GrzegorzKaszuba\AppData\Local\LAMMPS 64-bit 15Jun2023\plugins
box tilt large

The 'box' command has been removed and will be ignored

read_restart restart.equil
Reading restart file ...
  restart file = 15 Jun 2023, LAMMPS = 15 Jun 2023
  restoring atom style atomic from restart
  triclinic box = (0.038187301 0.035652329 0.049367936) to (7.5992729 7.6018079 10.751632) with tilt (0 0 0)
  1 by 1 by 1 MPI processor grid
  pair style meam stores no restart info
  54 atoms
  read_restart CPU = 0.001 seconds
include potential.mod
# Choose potential
pair_style meam
pair_coeff * * C:\Users\GrzegorzKaszuba\PycharmProjects\cdvae-main\lammps_config\potentials\NiCrFe\library.meam Cr Fe Ni C:\Users\GrzegorzKaszuba\PycharmProjects\cdvae-main\lammps_config\potentials\NiCrFe\NiCrFe.meam Cr Fe Ni


# Setup neighbor style
neighbor 1.0 nsq
neigh_modify once no every 1 delay 0 check yes

# Setup minimization style
min_style            cg
min_modify           dmax ${dmax} line quadratic
min_modify           dmax 0.01 line quadratic

# Setup output
thermo          1
thermo_style custom step temp pe press pxx pyy pzz pxy pxz pyz lx ly lz vol
thermo_modify norm no

# Positive deformation

variable delta equal ${up}*${len0}
variable delta equal 1e-06*${len0}
variable delta equal 1e-06*7.56108562769996
variable deltaxy equal ${up}*xy
variable deltaxy equal 1e-06*xy
variable deltaxz equal ${up}*xz
variable deltaxz equal 1e-06*xz
variable deltayz equal ${up}*yz
variable deltayz equal 1e-06*yz
if "${dir} == 1" then    "change_box all x delta 0 ${delta} xy delta ${deltaxy} xz delta ${deltaxz} remap units box"
change_box all x delta 0 ${delta} xy delta ${deltaxy} xz delta ${deltaxz} remap units box
change_box all x delta 0 7.56108562769996e-06 xy delta ${deltaxy} xz delta ${deltaxz} remap units box
change_box all x delta 0 7.56108562769996e-06 xy delta 0 xz delta ${deltaxz} remap units box
change_box all x delta 0 7.56108562769996e-06 xy delta 0 xz delta 0 remap units box
Changing box ...
  triclinic box = (0.038187301 0.035652329 0.049367936) to (7.5992805 7.6018079 10.751632) with tilt (0 0 0)
  triclinic box = (0.038187301 0.035652329 0.049367936) to (7.5992805 7.6018079 10.751632) with tilt (0 0 0)
  triclinic box = (0.038187301 0.035652329 0.049367936) to (7.5992805 7.6018079 10.751632) with tilt (0 0 0)
if "${dir} == 2" then    "change_box all y delta 0 ${delta} yz delta ${deltayz} remap units box"
if "${dir} == 3" then    "change_box all z delta 0 ${delta} remap units box"
if "${dir} == 4" then    "change_box all yz delta ${delta} remap units box"
if "${dir} == 5" then    "change_box all xz delta ${delta} remap units box"
if "${dir} == 6" then    "change_box all xy delta ${delta} remap units box"

# Relax atoms positions

minimize ${etol} ${ftol} ${maxiter} ${maxeval}
minimize 0 ${ftol} ${maxiter} ${maxeval}
minimize 0 1e-10 ${maxiter} ${maxeval}
minimize 0 1e-10 100 ${maxeval}
minimize 0 1e-10 100 1000
Neighbor list info ...
  update: every = 1 steps, delay = 0 steps, check = yes
  max neighbors/atom: 2000, page size: 100000
  master list distance cutoff = 5
  ghost atom cutoff = 5
  2 neighbor lists, perpetual/occasional/extra = 2 0 0
  (1) pair meam, perpetual
      attributes: full, newton on
      pair build: full/nsq
      stencil: none
      bin: none
  (2) pair meam, perpetual, half/full from (1)
      attributes: half, newton on
      pair build: halffull/newton
      stencil: none
      bin: none
Per MPI rank memory allocation (min/avg/max) = 28.77 | 28.77 | 28.77 Mbytes
   Step          Temp          PotEng         Press           Pxx            Pyy            Pzz            Pxy            Pxz            Pyz             Lx             Ly             Lz           Volume    
       100   0             -232.18498     -6204.7082     -7138.1037     -5989.2132     -5486.8078      2542.8875      1923.5848      5239.6147      7.5610932      7.5661556      10.702264      612.25948    
       101   0             -232.41753     -8599.7662     -9824.6962     -8326.9476     -7647.6548      2667.2958      1894.0231      5168.9003      7.5610932      7.5661556      10.702264      612.25948    
       102   0             -232.62266     -10697.798     -12170.039     -10370.939     -9552.4169      2795.5428      1843.5753      5086.6457      7.5610932      7.5661556      10.702264      612.25948    
       103   0             -232.80326     -12529.126     -14207.656     -12148.156     -11231.566      2926.7184      1774.4187      4994.9937      7.5610932      7.5661556      10.702264      612.25948    
       104   0             -232.96202     -14120.142     -15964.43      -13683.104     -12712.891      3059.525       1689.563       4895.6115      7.5610932      7.5661556      10.702264      612.25948    
       105   0             -233.10146     -15494.738     -17464.207     -14997.169     -14022.836      3192.1942      1592.7747      4790.5227      7.5610932      7.5661556      10.702264      612.25948    
       106   0             -233.22394     -16675.631     -18731.138     -16110.079     -15185.675      3324.0121      1488.5317      4681.8612      7.5610932      7.5661556      10.702264      612.25948    
       107   0             -233.33165     -17684.15      -19788.744     -17039.829     -16223.879      3454.7355      1380.5045      4571.8234      7.5610932      7.5661556      10.702264      612.25948    
       108   0             -233.42611     -18536.391     -20654.903     -17799.831     -17154.437      3583.292       1273.4229      4464.2996      7.5610932      7.5661556      10.702264      612.25948    
       109   0             -233.50609     -19227.083     -21326.708     -18388.458     -17966.085      3703.2268      1175.9789      4367.3626      7.5610932      7.5661556      10.702264      612.25948    
       110   0             -233.5741      -19788.553     -21843.128     -18839.752     -18682.778      3813.3096      1090.7155      4283.9943      7.5610932      7.5661556      10.702264      612.25948    
       111   0             -233.63224     -20248.367     -22238.845     -19183.624     -19322.634      3912.943       1018.1884      4215.4561      7.5610932      7.5661556      10.702264      612.25948    
       112   0             -233.68213     -20629.04      -22542.983     -19445.399     -19898.738      4002.1543      957.2423       4161.3159      7.5610932      7.5661556      10.702264      612.25948    
       113   0             -233.72509     -20948.324     -22778.862     -19645.821     -20420.288      4081.2952      905.44922      4119.9388      7.5610932      7.5661556      10.702264      612.25948    
       114   0             -233.76214     -21220.025     -22964.662     -19801.716     -20893.697      4150.744       859.9553       4088.8631      7.5610932      7.5661556      10.702264      612.25948    
       115   0             -233.79412     -21454.635     -23113.639     -19926.461     -21323.804      4210.8778      818.02639      4065.182       7.5610932      7.5661556      10.702264      612.25948    
       116   0             -233.82173     -21660.21      -23235.102     -20030.709     -21714.82       4261.9394      777.42682      4045.7904      7.5610932      7.5661556      10.702264      612.25948    
       117   0             -233.84533     -21840.982     -23334.098     -20121.746     -22067.101      4303.3415      736.97569      4027.802       7.5610932      7.5661556      10.702264      612.25948    
       118   0             -233.86517     -21998.752     -23412.947     -20204.071     -22379.237      4334.5497      696.81582      4008.6839      7.5610932      7.5661556      10.702264      612.25948    
       119   0             -233.8819      -22137.28      -23473.845     -20281.264     -22656.731      4356.1289      657.31057      3986.0705      7.5610932      7.5661556      10.702264      612.25948    
       120   0             -233.89607     -22258.796     -23517.188     -20354.718     -22904.483      4368.417       619.37643      3958.1781      7.5610932      7.5661556      10.702264      612.25948    
       121   0             -233.9081      -22364.224     -23542.034     -20423.968     -23126.67       4371.6513      584.2048       3923.619       7.5610932      7.5661556      10.702264      612.25948    
       122   0             -233.91834     -22453.307     -23546.307     -20486.953     -23326.661      4365.9448      553.03002      3881.3769      7.5610932      7.5661556      10.702264      612.25948    
       123   0             -233.92704     -22524.601     -23526.595     -20539.972     -23507.237      4351.0397      527.01313      3830.8433      7.5610932      7.5661556      10.702264      612.25948    
       124   0             -233.93437     -22575.11      -23477.668     -20577.459     -23670.205      4326.2595      507.09057      3771.997       7.5610932      7.5661556      10.702264      612.25948    
       125   0             -233.9404      -22599.416     -23390.795     -20591.172     -23816.279      4290.0881      493.94809      3706.0248      7.5610932      7.5661556      10.702264      612.25948    
       126   0             -233.94507     -22587.003     -23249.225     -20567.745     -23944.04       4239.6716      488.10056      3637.1554      7.5610932      7.5661556      10.702264      612.25948    
       127   0             -233.94776     -22521.785     -23038.967     -20492.395     -24033.994      4179.273       490.82056      3587.7719      7.5610932      7.5661556      10.702264      612.25948    
       128   0             -233.94831     -22456.309     -22894.069     -20443.603     -24031.256      4179.8124      499.3453       3612.7051      7.5610932      7.5661556      10.702264      612.25948    
       129   0             -233.94834     -22458.755     -22903.24      -20470.011     -24003.013      4219.432       495.7344       3602.6584      7.5610932      7.5661556      10.702264      612.25948    
       130   0             -233.94835     -22465.952     -22914.42      -20486.002     -23997.433      4235.9054      488.29424      3589.9442      7.5610932      7.5661556      10.702264      612.25948    
       131   0             -233.94836     -22464.328     -22926.922     -20479.804     -23986.256      4251.7315      492.69474      3597.7076      7.5610932      7.5661556      10.702264      612.25948    
       132   0             -233.94836     -22460.823     -22920.723     -20482.895     -23978.852      4259.9871      490.25223      3601.2526      7.5610932      7.5661556      10.702264      612.25948    
       133   0             -233.94837     -22457.889     -22919.197     -20477.628     -23976.842      4264.7384      491.47494      3599.7771      7.5610932      7.5661556      10.702264      612.25948    
       134   0             -233.94837     -22455.091     -22917.717     -20471.833     -23975.723      4266.1589      493.18724      3597.6419      7.5610932      7.5661556      10.702264      612.25948    
       135   0             -233.94837     -22453.146     -22915.332     -20470.004     -23974.103      4269.2479      494.45756      3597.7445      7.5610932      7.5661556      10.702264      612.25948    
       136   0             -233.94837     -22451.857     -22914.038     -20468.615     -23972.917      4271.3432      493.96825      3596.9152      7.5610932      7.5661556      10.702264      612.25948    
       137   0             -233.94837     -22451.184     -22913.42      -20467.57      -23972.561      4273.2408      493.85332      3596.2159      7.5610932      7.5661556      10.702264      612.25948    
       138   0             -233.94837     -22450.662     -22913.109     -20466.909     -23971.966      4274.5664      494.47461      3596.191       7.5610932      7.5661556      10.702264      612.25948    
       139   0             -233.94837     -22450.208     -22912.221     -20466.484     -23971.918      4275.3079      494.35679      3596.4227      7.5610932      7.5661556      10.702264      612.25948    
       140   0             -233.94837     -22449.794     -22911.38      -20466.239     -23971.764      4276.0615      494.60397      3596.5174      7.5610932      7.5661556      10.702264      612.25948    
       141   0             -233.94837     -22449.651     -22911.16      -20466.127     -23971.667      4276.379       494.60592      3596.5008      7.5610932      7.5661556      10.702264      612.25948    
       142   0             -233.94837     -22449.638     -22910.973     -20466.305     -23971.637      4276.4869      494.62442      3596.4378      7.5610932      7.5661556      10.702264      612.25948    
       143   0             -233.94837     -22449.624     -22911.004     -20466.375     -23971.492      4276.7013      494.61215      3596.4257      7.5610932      7.5661556      10.702264      612.25948    
       144   0             -233.94837     -22449.605     -22910.98      -20466.294     -23971.541      4276.7359      494.68885      3596.4725      7.5610932      7.5661556      10.702264      612.25948    
       145   0             -233.94837     -22449.592     -22910.934     -20466.286     -23971.556      4276.7345      494.68251      3596.4701      7.5610932      7.5661556      10.702264      612.25948    
       146   0             -233.94837     -22449.599     -22910.938     -20466.292     -23971.567      4276.7553      494.68289      3596.4372      7.5610932      7.5661556      10.702264      612.25948    
       147   0             -233.94837     -22449.604     -22910.943     -20466.28      -23971.588      4276.7543      494.69499      3596.4236      7.5610932      7.5661556      10.702264      612.25948    
       148   0             -233.94837     -22449.601     -22910.95      -20466.274     -23971.579      4276.7634      494.69315      3596.4054      7.5610932      7.5661556      10.702264      612.25948    
       149   0             -233.94837     -22449.597     -22910.948     -20466.267     -23971.575      4276.7722      494.69363      3596.4057      7.5610932      7.5661556      10.702264      612.25948    
       150   0             -233.94837     -22449.596     -22910.945     -20466.27      -23971.573      4276.7757      494.69128      3596.4023      7.5610932      7.5661556      10.702264      612.25948    
       151   0             -233.94837     -22449.595     -22910.947     -20466.269     -23971.569      4276.7783      494.69075      3596.3974      7.5610932      7.5661556      10.702264      612.25948    
       152   0             -233.94837     -22449.594     -22910.945     -20466.268     -23971.569      4276.7812      494.69101      3596.3961      7.5610932      7.5661556      10.702264      612.25948    
       153   0             -233.94837     -22449.594     -22910.945     -20466.269     -23971.568      4276.7859      494.69185      3596.3958      7.5610932      7.5661556      10.702264      612.25948    
       154   0             -233.94837     -22449.594     -22910.945     -20466.269     -23971.567      4276.7882      494.69145      3596.3959      7.5610932      7.5661556      10.702264      612.25948    
       155   0             -233.94837     -22449.593     -22910.943     -20466.268     -23971.568      4276.7895      494.69265      3596.396       7.5610932      7.5661556      10.702264      612.25948    
       156   0             -233.94837     -22449.592     -22910.943     -20466.267     -23971.566      4276.7901      494.69257      3596.3955      7.5610932      7.5661556      10.702264      612.25948    
       157   0             -233.94837     -22449.592     -22910.943     -20466.267     -23971.565      4276.791       494.69223      3596.3956      7.5610932      7.5661556      10.702264      612.25948    
       158   0             -233.94837     -22449.591     -22910.943     -20466.267     -23971.565      4276.7917      494.69219      3596.3956      7.5610932      7.5661556      10.702264      612.25948    
       159   0             -233.94837     -22449.591     -22910.942     -20466.266     -23971.565      4276.7922      494.69223      3596.3955      7.5610932      7.5661556      10.702264      612.25948    
       160   0             -233.94837     -22449.591     -22910.942     -20466.266     -23971.565      4276.7925      494.69226      3596.3956      7.5610932      7.5661556      10.702264      612.25948    
       161   0             -233.94837     -22449.591     -22910.942     -20466.266     -23971.565      4276.7926      494.69232      3596.3957      7.5610932      7.5661556      10.702264      612.25948    
       162   0             -233.94837     -22449.591     -22910.942     -20466.266     -23971.565      4276.7926      494.69235      3596.3957      7.5610932      7.5661556      10.702264      612.25948    
       163   0             -233.94837     -22449.591     -22910.942     -20466.266     -23971.565      4276.7926      494.6924       3596.3957      7.5610932      7.5661556      10.702264      612.25948    
       164   0             -233.94837     -22449.591     -22910.942     -20466.266     -23971.565      4276.7926      494.69241      3596.3957      7.5610932      7.5661556      10.702264      612.25948    
       165   0             -233.94837     -22449.591     -22910.942     -20466.266     -23971.565      4276.7926      494.69243      3596.3957      7.5610932      7.5661556      10.702264      612.25948    
       166   0             -233.94837     -22449.591     -22910.942     -20466.266     -23971.565      4276.7926      494.69243      3596.3957      7.5610932      7.5661556      10.702264      612.25948    
       167   0             -233.94837     -22449.591     -22910.942     -20466.266     -23971.565      4276.7926      494.69243      3596.3957      7.5610932      7.5661556      10.702264      612.25948    
       168   0             -233.94837     -22449.591     -22910.942     -20466.266     -23971.565      4276.7927      494.69243      3596.3957      7.5610932      7.5661556      10.702264      612.25948    
       169   0             -233.94837     -22449.591     -22910.942     -20466.266     -23971.565      4276.7927      494.69243      3596.3957      7.5610932      7.5661556      10.702264      612.25948    
       170   0             -233.94837     -22449.591     -22910.942     -20466.266     -23971.565      4276.7927      494.69243      3596.3957      7.5610932      7.5661556      10.702264      612.25948    
       171   0             -233.94837     -22449.591     -22910.942     -20466.266     -23971.565      4276.7927      494.69243      3596.3957      7.5610932      7.5661556      10.702264      612.25948    
       172   0             -233.94837     -22449.591     -22910.942     -20466.266     -23971.565      4276.7927      494.69243      3596.3957      7.5610932      7.5661556      10.702264      612.25948    
       173   0             -233.94837     -22449.591     -22910.942     -20466.266     -23971.565      4276.7927      494.69243      3596.3957      7.5610932      7.5661556      10.702264      612.25948    
       174   0             -233.94837     -22449.591     -22910.942     -20466.266     -23971.565      4276.7927      494.69243      3596.3957      7.5610932      7.5661556      10.702264      612.25948    
       175   0             -233.94837     -22449.591     -22910.942     -20466.266     -23971.565      4276.7927      494.69243      3596.3957      7.5610932      7.5661556      10.702264      612.25948    
       176   0             -233.94837     -22449.591     -22910.942     -20466.266     -23971.565      4276.7927      494.69243      3596.3957      7.5610932      7.5661556      10.702264      612.25948    
       177   0             -233.94837     -22449.591     -22910.942     -20466.266     -23971.565      4276.7927      494.69243      3596.3957      7.5610932      7.5661556      10.702264      612.25948    
       178   0             -233.94837     -22449.591     -22910.942     -20466.266     -23971.565      4276.7927      494.69243      3596.3957      7.5610932      7.5661556      10.702264      612.25948    
       179   0             -233.94837     -22449.591     -22910.942     -20466.266     -23971.565      4276.7927      494.69243      3596.3957      7.5610932      7.5661556      10.702264      612.25948    
       180   0             -233.94837     -22449.591     -22910.942     -20466.266     -23971.565      4276.7927      494.69243      3596.3957      7.5610932      7.5661556      10.702264      612.25948    
Loop time of 0.057153 on 16 procs for 80 steps with 54 atoms

109.4% CPU use with 1 MPI tasks x 16 OpenMP threads

Minimization stats:
  Stopping criterion = force tolerance
  Energy initial, next-to-last, final = 
     -232.184975684027  -233.948367492041  -233.948367492041
  Force two-norm initial, final = 5.3821071 7.0515286e-11
  Force max component initial, final = 1.1826233 1.5936807e-11
  Final line search alpha, max atom move = 1 1.5936807e-11
  Iterations, force evaluations = 80 133

MPI task timing breakdown:
Section |  min time  |  avg time  |  max time  |%varavg| %total
---------------------------------------------------------------
Pair    | 0.05613    | 0.05613    | 0.05613    |   0.0 | 98.21
Neigh   | 0          | 0          | 0          |   0.0 |  0.00
Comm    | 0.000184   | 0.000184   | 0.000184   |   0.0 |  0.32
Output  | 0.000683   | 0.000683   | 0.000683   |   0.0 |  1.20
Modify  | 0          | 0          | 0          |   0.0 |  0.00
Other   |            | 0.000156   |            |       |  0.27

Nlocal:             54 ave          54 max          54 min
Histogram: 1 0 0 0 0 0 0 0 0 0
Nghost:            481 ave         481 max         481 min
Histogram: 1 0 0 0 0 0 0 0 0 0
Neighs:           1175 ave        1175 max        1175 min
Histogram: 1 0 0 0 0 0 0 0 0 0
FullNghs:         2350 ave        2350 max        2350 min
Histogram: 1 0 0 0 0 0 0 0 0 0

Total # of neighbors = 2350
Ave neighs/atom = 43.518519
Neighbor list builds = 0
Dangerous builds = 0

# Obtain new stress tensor

variable tmp equal pe
variable e1 equal ${tmp}
variable e1 equal -233.948367492041
variable tmp equal press
variable p1 equal ${tmp}
variable p1 equal -22449.5908508724
variable tmp equal pxx
variable pxx1 equal ${tmp}
variable pxx1 equal -22910.9417462762
variable tmp equal pyy
variable pyy1 equal ${tmp}
variable pyy1 equal -20466.2662022427
variable tmp equal pzz
variable pzz1 equal ${tmp}
variable pzz1 equal -23971.5646040983
variable tmp equal pxy
variable pxy1 equal ${tmp}
variable pxy1 equal 4276.79266562926
variable tmp equal pxz
variable pxz1 equal ${tmp}
variable pxz1 equal 494.692430588171
variable tmp equal pyz
variable pyz1 equal ${tmp}
variable pyz1 equal 3596.39571379506

# Compute elastic constant from pressure tensor

variable C1pos equal ${d1}
variable C1pos equal 1577513.8193946
variable C2pos equal ${d2}
variable C2pos equal 1447823.07492789
variable C3pos equal ${d3}
variable C3pos equal 1848628.06653334
variable C4pos equal ${d4}
variable C4pos equal 164337.444620246
variable C5pos equal ${d5}
variable C5pos equal 142912.177790203
variable C6pos equal ${d6}
variable C6pos equal -173394.564884329

# Combine positive and negative

variable C1${dir} equal 0.5*(${C1neg}+${C1pos})
variable C11 equal 0.5*(${C1neg}+${C1pos})
variable C11 equal 0.5*(-1576978.86589478+${C1pos})
variable C11 equal 0.5*(-1576978.86589478+1577513.8193946)
variable C2${dir} equal 0.5*(${C2neg}+${C2pos})
variable C21 equal 0.5*(${C2neg}+${C2pos})
variable C21 equal 0.5*(-1447597.87738142+${C2pos})
variable C21 equal 0.5*(-1447597.87738142+1447823.07492789)
variable C3${dir} equal 0.5*(${C3neg}+${C3pos})
variable C31 equal 0.5*(${C3neg}+${C3pos})
variable C31 equal 0.5*(-1848316.41754919+${C3pos})
variable C31 equal 0.5*(-1848316.41754919+1848628.06653334)
variable C4${dir} equal 0.5*(${C4neg}+${C4pos})
variable C41 equal 0.5*(${C4neg}+${C4pos})
variable C41 equal 0.5*(-164341.325371095+${C4pos})
variable C41 equal 0.5*(-164341.325371095+164337.444620246)
variable C5${dir} equal 0.5*(${C5neg}+${C5pos})
variable C51 equal 0.5*(${C5neg}+${C5pos})
variable C51 equal 0.5*(-142907.838142422+${C5pos})
variable C51 equal 0.5*(-142907.838142422+142912.177790203)
variable C6${dir} equal 0.5*(${C6neg}+${C6pos})
variable C61 equal 0.5*(${C6neg}+${C6pos})
variable C61 equal 0.5*(173393.192260927+${C6pos})
variable C61 equal 0.5*(173393.192260927+-173394.564884329)

# Delete dir to make sure it is not reused

variable dir delete


# uyy Perturbation

variable dir equal 2
include displace.mod
# NOTE: This script should not need to be
# modified. See in.elastic for more info.
#
# Find which reference length to use

if "${dir} == 1" then    "variable len0 equal ${lx0}"
if "${dir} == 2" then    "variable len0 equal ${ly0}"
variable len0 equal ${ly0}
variable len0 equal 7.56615557177767
if "${dir} == 3" then    "variable len0 equal ${lz0}"
if "${dir} == 4" then    "variable len0 equal ${lz0}"
if "${dir} == 5" then    "variable len0 equal ${lz0}"
if "${dir} == 6" then    "variable len0 equal ${ly0}"

# Reset box and simulation parameters

clear
  using 16 OpenMP thread(s) per MPI task
Loaded 1 plugins from C:\Users\GrzegorzKaszuba\AppData\Local\LAMMPS 64-bit 15Jun2023\plugins
box tilt large

The 'box' command has been removed and will be ignored

read_restart restart.equil
Reading restart file ...
  restart file = 15 Jun 2023, LAMMPS = 15 Jun 2023
  restoring atom style atomic from restart
  triclinic box = (0.038187301 0.035652329 0.049367936) to (7.5992729 7.6018079 10.751632) with tilt (0 0 0)
  1 by 1 by 1 MPI processor grid
  pair style meam stores no restart info
  54 atoms
  read_restart CPU = 0.001 seconds
include potential.mod
# Choose potential
pair_style meam
pair_coeff * * C:\Users\GrzegorzKaszuba\PycharmProjects\cdvae-main\lammps_config\potentials\NiCrFe\library.meam Cr Fe Ni C:\Users\GrzegorzKaszuba\PycharmProjects\cdvae-main\lammps_config\potentials\NiCrFe\NiCrFe.meam Cr Fe Ni


# Setup neighbor style
neighbor 1.0 nsq
neigh_modify once no every 1 delay 0 check yes

# Setup minimization style
min_style            cg
min_modify           dmax ${dmax} line quadratic
min_modify           dmax 0.01 line quadratic

# Setup output
thermo          1
thermo_style custom step temp pe press pxx pyy pzz pxy pxz pyz lx ly lz vol
thermo_modify norm no

# Negative deformation

variable delta equal -${up}*${len0}
variable delta equal -1e-06*${len0}
variable delta equal -1e-06*7.56615557177767
variable deltaxy equal -${up}*xy
variable deltaxy equal -1e-06*xy
variable deltaxz equal -${up}*xz
variable deltaxz equal -1e-06*xz
variable deltayz equal -${up}*yz
variable deltayz equal -1e-06*yz
if "${dir} == 1" then    "change_box all x delta 0 ${delta} xy delta ${deltaxy} xz delta ${deltaxz} remap units box"
if "${dir} == 2" then    "change_box all y delta 0 ${delta} yz delta ${deltayz} remap units box"
change_box all y delta 0 ${delta} yz delta ${deltayz} remap units box
change_box all y delta 0 -7.56615557177767e-06 yz delta ${deltayz} remap units box
change_box all y delta 0 -7.56615557177767e-06 yz delta -0 remap units box
Changing box ...
  triclinic box = (0.038187301 0.035652329 0.049367936) to (7.5992729 7.6018003 10.751632) with tilt (0 0 0)
  triclinic box = (0.038187301 0.035652329 0.049367936) to (7.5992729 7.6018003 10.751632) with tilt (0 0 0)
if "${dir} == 3" then    "change_box all z delta 0 ${delta} remap units box"
if "${dir} == 4" then    "change_box all yz delta ${delta} remap units box"
if "${dir} == 5" then    "change_box all xz delta ${delta} remap units box"
if "${dir} == 6" then    "change_box all xy delta ${delta} remap units box"

# Relax atoms positions

minimize ${etol} ${ftol} ${maxiter} ${maxeval}
minimize 0 ${ftol} ${maxiter} ${maxeval}
minimize 0 1e-10 ${maxiter} ${maxeval}
minimize 0 1e-10 100 ${maxeval}
minimize 0 1e-10 100 1000
Neighbor list info ...
  update: every = 1 steps, delay = 0 steps, check = yes
  max neighbors/atom: 2000, page size: 100000
  master list distance cutoff = 5
  ghost atom cutoff = 5
  2 neighbor lists, perpetual/occasional/extra = 2 0 0
  (1) pair meam, perpetual
      attributes: full, newton on
      pair build: full/nsq
      stencil: none
      bin: none
  (2) pair meam, perpetual, half/full from (1)
      attributes: half, newton on
      pair build: halffull/newton
      stencil: none
      bin: none
Per MPI rank memory allocation (min/avg/max) = 28.77 | 28.77 | 28.77 Mbytes
[...]
       132   0             -233.94838     -22457.23      -22916.489     -20480.213     -23974.989      4259.9872      490.28224      3601.2514      7.5610856      7.5661556      10.702253      612.25825    
       133   0             -233.94838     -22454.299     -22914.957     -20474.956     -23972.985      4264.7338      491.50791      3599.785       7.5610856      7.5661556      10.702253      612.25825    
       134   0             -233.94838     -22451.502     -22913.484     -20469.158     -23971.863      4266.1551      493.21845      3597.6476      7.5610856      7.5661556      10.702253      612.25825    
       135   0             -233.94838     -22449.558     -22911.097     -20467.331     -23970.245      4269.2422      494.48789      3597.7483      7.5610856      7.5661556      10.702253      612.25825    
       136   0             -233.94839     -22448.269     -22909.804     -20465.942     -23969.06       4271.3366      494.00132      3596.9232      7.5610856      7.5661556      10.702253      612.25825    
       137   0             -233.94839     -22447.595     -22909.186     -20464.896     -23968.703      4273.2344      493.88395      3596.2214      7.5610856      7.5661556      10.702253      612.25825    
       138   0             -233.94839     -22447.073     -22908.875     -20464.235     -23968.108      4274.5601      494.50655      3596.1966      7.5610856      7.5661556      10.702253      612.25825    
       139   0             -233.94839     -22446.619     -22907.988     -20463.81      -23968.06       4275.3013      494.38834      3596.4286      7.5610856      7.5661556      10.702253      612.25825    
       140   0             -233.94839     -22446.206     -22907.146     -20463.564     -23967.906      4276.0546      494.63514      3596.5229      7.5610856      7.5661556      10.702253      612.25825    
       141   0             -233.94839     -22446.063     -22906.926     -20463.453     -23967.809      4276.3725      494.63764      3596.5064      7.5610856      7.5661556      10.702253      612.25825    
       142   0             -233.94839     -22446.05      -22906.739     -20463.63      -23967.779      4276.4804      494.65592      3596.4435      7.5610856      7.5661556      10.702253      612.25825    
       143   0             -233.94839     -22446.035     -22906.77      -20463.7       -23967.634      4276.6948      494.64363      3596.4313      7.5610856      7.5661556      10.702253      612.25825    
       144   0             -233.94839     -22446.016     -22906.746     -20463.62      -23967.683      4276.7294      494.72038      3596.4781      7.5610856      7.5661556      10.702253      612.25825    
       145   0             -233.94839     -22446.004     -22906.7       -20463.612     -23967.698      4276.728       494.71404      3596.4758      7.5610856      7.5661556      10.702253      612.25825    
       146   0             -233.94839     -22446.01      -22906.704     -20463.618     -23967.709      4276.7488      494.71439      3596.4429      7.5610856      7.5661556      10.702253      612.25825    
       147   0             -233.94839     -22446.015     -22906.709     -20463.606     -23967.73       4276.7479      494.72652      3596.4292      7.5610856      7.5661556      10.702253      612.25825    
       148   0             -233.94839     -22446.012     -22906.716     -20463.6       -23967.721      4276.757       494.72467      3596.411       7.5610856      7.5661556      10.702253      612.25825    
       149   0             -233.94839     -22446.008     -22906.714     -20463.593     -23967.717      4276.7657      494.72516      3596.4114      7.5610856      7.5661556      10.702253      612.25825    
       150   0             -233.94839     -22446.007     -22906.711     -20463.595     -23967.715      4276.7692      494.72279      3596.4079      7.5610856      7.5661556      10.702253      612.25825    
       151   0             -233.94839     -22446.006     -22906.713     -20463.595     -23967.711      4276.7718      494.72227      3596.403       7.5610856      7.5661556      10.702253      612.25825    
       152   0             -233.94839     -22446.005     -22906.711     -20463.594     -23967.711      4276.7747      494.72252      3596.4017      7.5610856      7.5661556      10.702253      612.25825    
       153   0             -233.94839     -22446.005     -22906.711     -20463.595     -23967.71       4276.7795      494.72337      3596.4015      7.5610856      7.5661556      10.702253      612.25825    
       154   0             -233.94839     -22446.005     -22906.711     -20463.595     -23967.71       4276.7817      494.72297      3596.4016      7.5610856      7.5661556      10.702253      612.25825    
       155   0             -233.94839     -22446.004     -22906.709     -20463.594     -23967.71       4276.783       494.72416      3596.4017      7.5610856      7.5661556      10.702253      612.25825    
       156   0             -233.94839     -22446.004     -22906.709     -20463.593     -23967.709      4276.7836      494.72409      3596.4012      7.5610856      7.5661556      10.702253      612.25825    
       157   0             -233.94839     -22446.003     -22906.709     -20463.593     -23967.707      4276.7846      494.72375      3596.4013      7.5610856      7.5661556      10.702253      612.25825    
       158   0             -233.94839     -22446.003     -22906.708     -20463.592     -23967.707      4276.7852      494.7237       3596.4012      7.5610856      7.5661556      10.702253      612.25825    
       159   0             -233.94839     -22446.002     -22906.708     -20463.592     -23967.707      4276.7857      494.72375      3596.4012      7.5610856      7.5661556      10.702253      612.25825    
       160   0             -233.94839     -22446.002     -22906.708     -20463.592     -23967.707      4276.786       494.72377      3596.4013      7.5610856      7.5661556      10.702253      612.25825    
       161   0             -233.94839     -22446.002     -22906.708     -20463.592     -23967.707      4276.7861      494.72384      3596.4013      7.5610856      7.5661556      10.702253      612.25825    
       162   0             -233.94839     -22446.002     -22906.708     -20463.592     -23967.707      4276.7861      494.72387      3596.4014      7.5610856      7.5661556      10.702253      612.25825    
       163   0             -233.94839     -22446.002     -22906.708     -20463.592     -23967.707      4276.7861      494.72391      3596.4014      7.5610856      7.5661556      10.702253      612.25825    
       164   0             -233.94839     -22446.002     -22906.708     -20463.592     -23967.707      4276.7861      494.72393      3596.4014      7.5610856      7.5661556      10.702253      612.25825    
       165   0             -233.94839     -22446.002     -22906.708     -20463.592     -23967.707      4276.7861      494.72395      3596.4014      7.5610856      7.5661556      10.702253      612.25825    
       166   0             -233.94839     -22446.002     -22906.708     -20463.592     -23967.707      4276.7862      494.72394      3596.4014      7.5610856      7.5661556      10.702253      612.25825    
       167   0             -233.94839     -22446.002     -22906.708     -20463.592     -23967.707      4276.7862      494.72395      3596.4014      7.5610856      7.5661556      10.702253      612.25825    
       168   0             -233.94839     -22446.002     -22906.708     -20463.592     -23967.707      4276.7862      494.72395      3596.4014      7.5610856      7.5661556      10.702253      612.25825    
       169   0             -233.94839     -22446.002     -22906.708     -20463.592     -23967.707      4276.7862      494.72394      3596.4014      7.5610856      7.5661556      10.702253      612.25825    
       170   0             -233.94839     -22446.002     -22906.708     -20463.592     -23967.707      4276.7862      494.72395      3596.4014      7.5610856      7.5661556      10.702253      612.25825    
       171   0             -233.94839     -22446.002     -22906.708     -20463.592     -23967.707      4276.7862      494.72395      3596.4014      7.5610856      7.5661556      10.702253      612.25825    
       172   0             -233.94839     -22446.002     -22906.708     -20463.592     -23967.707      4276.7862      494.72395      3596.4014      7.5610856      7.5661556      10.702253      612.25825    
       173   0             -233.94839     -22446.002     -22906.708     -20463.592     -23967.707      4276.7862      494.72395      3596.4014      7.5610856      7.5661556      10.702253      612.25825    
       174   0             -233.94839     -22446.002     -22906.708     -20463.592     -23967.707      4276.7862      494.72395      3596.4014      7.5610856      7.5661556      10.702253      612.25825    
       175   0             -233.94839     -22446.002     -22906.708     -20463.592     -23967.707      4276.7862      494.72395      3596.4014      7.5610856      7.5661556      10.702253      612.25825    
       176   0             -233.94839     -22446.002     -22906.708     -20463.592     -23967.707      4276.7862      494.72395      3596.4014      7.5610856      7.5661556      10.702253      612.25825    
       177   0             -233.94839     -22446.002     -22906.708     -20463.592     -23967.707      4276.7862      494.72395      3596.4014      7.5610856      7.5661556      10.702253      612.25825    
       178   0             -233.94839     -22446.002     -22906.708     -20463.592     -23967.707      4276.7862      494.72395      3596.4014      7.5610856      7.5661556      10.702253      612.25825    
       179   0             -233.94839     -22446.002     -22906.708     -20463.592     -23967.707      4276.7862      494.72395      3596.4014      7.5610856      7.5661556      10.702253      612.25825    
       180   0             -233.94839     -22446.002     -22906.708     -20463.592     -23967.707      4276.7862      494.72395      3596.4014      7.5610856      7.5661556      10.702253      612.25825    
Loop time of 0.057458 on 16 procs for 80 steps with 54 atoms

108.8% CPU use with 1 MPI tasks x 16 OpenMP threads

Minimization stats:
  Stopping criterion = force tolerance
  Energy initial, next-to-last, final = 
     -232.184980506902  -233.948385406268  -233.948385406268
  Force two-norm initial, final = 5.3821534 7.0440863e-11
  Force max component initial, final = 1.1826326 1.5942248e-11
  Final line search alpha, max atom move = 1 1.5942248e-11
  Iterations, force evaluations = 80 133

MPI task timing breakdown:
Section |  min time  |  avg time  |  max time  |%varavg| %total
---------------------------------------------------------------
Pair    | 0.05649    | 0.05649    | 0.05649    |   0.0 | 98.32
Neigh   | 0          | 0          | 0          |   0.0 |  0.00
Comm    | 0.000182   | 0.000182   | 0.000182   |   0.0 |  0.32
Output  | 0.000635   | 0.000635   | 0.000635   |   0.0 |  1.11
Modify  | 0          | 0          | 0          |   0.0 |  0.00
Other   |            | 0.000151   |            |       |  0.26

Nlocal:             54 ave          54 max          54 min
Histogram: 1 0 0 0 0 0 0 0 0 0
Nghost:            481 ave         481 max         481 min
Histogram: 1 0 0 0 0 0 0 0 0 0
Neighs:           1175 ave        1175 max        1175 min
Histogram: 1 0 0 0 0 0 0 0 0 0
FullNghs:         2350 ave        2350 max        2350 min
Histogram: 1 0 0 0 0 0 0 0 0 0

Total # of neighbors = 2350
Ave neighs/atom = 43.518519
Neighbor list builds = 0
Dangerous builds = 0

# Obtain new stress tensor

variable tmp equal pxx
variable pxx1 equal ${tmp}
variable pxx1 equal -22906.7076787259
variable tmp equal pyy
variable pyy1 equal ${tmp}
variable pyy1 equal -20463.5920086354
variable tmp equal pzz
variable pzz1 equal ${tmp}
variable pzz1 equal -23967.7066492241
variable tmp equal pxy
variable pxy1 equal ${tmp}
variable pxy1 equal 4276.78617334641
variable tmp equal pxz
variable pxz1 equal ${tmp}
variable pxz1 equal 494.723947557407
variable tmp equal pyz
variable pyz1 equal ${tmp}
variable pyz1 equal 3596.40137203046

# Compute elastic constant from pressure tensor

variable C1neg equal ${d1}
variable C1neg equal -1577090.41263957
variable C2neg equal ${d2}
variable C2neg equal -1447555.65556716
variable C3neg equal ${d3}
variable C3neg equal -1848242.27104592
variable C4neg equal ${d4}
variable C4neg equal -164336.878796706
variable C5neg equal ${d5}
variable C5neg equal -142909.026093279
variable C6neg equal ${d6}
variable C6neg equal 173393.915656044

# Reset box and simulation parameters

clear
  using 16 OpenMP thread(s) per MPI task
Loaded 1 plugins from C:\Users\GrzegorzKaszuba\AppData\Local\LAMMPS 64-bit 15Jun2023\plugins
box tilt large

The 'box' command has been removed and will be ignored

read_restart restart.equil
Reading restart file ...
  restart file = 15 Jun 2023, LAMMPS = 15 Jun 2023
  restoring atom style atomic from restart
  triclinic box = (0.038187301 0.035652329 0.049367936) to (7.5992729 7.6018079 10.751632) with tilt (0 0 0)
  1 by 1 by 1 MPI processor grid
  pair style meam stores no restart info
  54 atoms
  read_restart CPU = 0.001 seconds
include potential.mod
# Choose potential
pair_style meam
pair_coeff * * C:\Users\GrzegorzKaszuba\PycharmProjects\cdvae-main\lammps_config\potentials\NiCrFe\library.meam Cr Fe Ni C:\Users\GrzegorzKaszuba\PycharmProjects\cdvae-main\lammps_config\potentials\NiCrFe\NiCrFe.meam Cr Fe Ni


# Setup neighbor style
neighbor 1.0 nsq
neigh_modify once no every 1 delay 0 check yes

# Setup minimization style
min_style            cg
min_modify           dmax ${dmax} line quadratic
min_modify           dmax 0.01 line quadratic

# Setup output
thermo          1
thermo_style custom step temp pe press pxx pyy pzz pxy pxz pyz lx ly lz vol
thermo_modify norm no

# Positive deformation

variable delta equal ${up}*${len0}
variable delta equal 1e-06*${len0}
variable delta equal 1e-06*10.7022639784719
variable deltaxy equal ${up}*xy
variable deltaxy equal 1e-06*xy
variable deltaxz equal ${up}*xz
variable deltaxz equal 1e-06*xz
variable deltayz equal ${up}*yz
variable deltayz equal 1e-06*yz
if "${dir} == 1" then    "change_box all x delta 0 ${delta} xy delta ${deltaxy} xz delta ${deltaxz} remap units box"
if "${dir} == 2" then    "change_box all y delta 0 ${delta} yz delta ${deltayz} remap units box"
if "${dir} == 3" then    "change_box all z delta 0 ${delta} remap units box"
change_box all z delta 0 ${delta} remap units box
change_box all z delta 0 1.07022639784719e-05 remap units box
Changing box ...
  triclinic box = (0.038187301 0.035652329 0.049367936) to (7.5992729 7.6018079 10.751643) with tilt (0 0 0)
if "${dir} == 4" then    "change_box all yz delta ${delta} remap units box"
if "${dir} == 5" then    "change_box all xz delta ${delta} remap units box"
if "${dir} == 6" then    "change_box all xy delta ${delta} remap units box"

# Relax atoms positions

minimize ${etol} ${ftol} ${maxiter} ${maxeval}
minimize 0 ${ftol} ${maxiter} ${maxeval}
minimize 0 1e-10 ${maxiter} ${maxeval}
minimize 0 1e-10 100 ${maxeval}
minimize 0 1e-10 100 1000
Neighbor list info ...
  update: every = 1 steps, delay = 0 steps, check = yes
  max neighbors/atom: 2000, page size: 100000
  master list distance cutoff = 5
  ghost atom cutoff = 5
  2 neighbor lists, perpetual/occasional/extra = 2 0 0
  (1) pair meam, perpetual
      attributes: full, newton on
      pair build: full/nsq
      stencil: none
      bin: none
  (2) pair meam, perpetual, half/full from (1)
      attributes: half, newton on
      pair build: halffull/newton
      stencil: none
      bin: none
Per MPI rank memory allocation (min/avg/max) = 28.77 | 28.77 | 28.77 Mbytes
   Step          Temp          PotEng         Press           Pxx            Pyy            Pzz            Pxy            Pxz            Pyz             Lx             Ly             Lz           Volume    
       100   0             -232.18498     -6204.7006     -7136.8033     -5989.6316     -5487.6668      2542.8843      1923.5788      5239.6108      7.5610856      7.5661556      10.702275      612.25948    
       101   0             -232.41753     -8599.768      -9823.4323     -8327.3628     -7648.509       2667.2928      1894.0177      5168.8947      7.5610856      7.5661556      10.702275      612.25948    
       102   0             -232.62266     -10697.807     -12168.804     -10371.351     -9553.265       2795.5402      1843.5706      5086.6384      7.5610856      7.5661556      10.702275      612.25948    
       103   0             -232.80326     -12529.139     -14206.446     -12148.565     -11232.407      2926.7161      1774.4146      4994.9846      7.5610856      7.5661556      10.702275      612.25948    
       104   0             -232.96203     -14120.158     -15963.24      -13683.51      -12713.724      3059.5232      1689.5594      4895.6004      7.5610856      7.5661556      10.702275      612.25948    
       105   0             -233.10147     -15494.756     -17463.035     -14997.573     -14023.66       3192.1929      1592.7716      4790.5096      7.5610856      7.5661556      10.702275      612.25948    
       106   0             -233.22395     -16675.65      -18729.979     -16110.48      -15186.49       3324.0112      1488.5291      4681.8458      7.5610856      7.5661556      10.702275      612.25948    
       107   0             -233.33165     -17684.169     -19787.596     -17040.228     -16224.684      3454.7353      1380.5024      4571.8055      7.5610856      7.5661556      10.702275      612.25948    
       108   0             -233.42612     -18536.402     -20653.757     -17800.222     -17155.226      3583.2914      1273.4223      4464.28        7.5610856      7.5661556      10.702275      612.25948    
       109   0             -233.50609     -19227.09      -21325.564     -18388.844     -17966.861      3703.2259      1175.9796      4367.3412      7.5610856      7.5661556      10.702275      612.25948    
       110   0             -233.5741      -19788.555     -21841.988     -18840.136     -18683.542      3813.3084      1090.7174      4283.971       7.5610856      7.5661556      10.702275      612.25948    
       111   0             -233.63224     -20248.367     -22237.707     -19184.006     -19323.388      3912.9415      1018.1913      4215.4309      7.5610856      7.5661556      10.702275      612.25948    
       112   0             -233.68213     -20629.038     -22541.848     -19445.781     -19899.485      4002.1526      957.24594      4161.2888      7.5610856      7.5661556      10.702275      612.25948    
       113   0             -233.72509     -20948.321     -22777.731     -19646.203     -20421.028      4081.2932      905.45353      4119.9098      7.5610856      7.5661556      10.702275      612.25948    
       114   0             -233.76214     -21220.022     -22963.533     -19802.1       -20894.432      4150.7418      859.96026      4088.8323      7.5610856      7.5661556      10.702275      612.25948    
       115   0             -233.79412     -21454.631     -23112.513     -19926.846     -21324.536      4210.8753      818.03201      4065.1494      7.5610856      7.5661556      10.702275      612.25948    
       116   0             -233.82173     -21660.207     -23233.978     -20031.096     -21715.548      4261.9366      777.43315      4045.7562      7.5610856      7.5661556      10.702275      612.25948    
       117   0             -233.84533     -21840.98      -23332.977     -20122.135     -22067.829      4303.3387      736.98249      4027.7661      7.5610856      7.5661556      10.702275      612.25948    
       118   0             -233.86517     -21998.752     -23411.828     -20204.462     -22379.