LMP/Binary/NiCr/lammps-data/NiCr60_7.lmp (written by ASE) 

16 	 atoms 
2  atom types
0.0      4.9780317395532947  xlo xhi
0.0      4.9780317395532947  ylo yhi
0.0                    7.04  zlo zhi
0.0 0.0 0.0 xy xz yz
Masses

1 58.69
2 51.99
Atoms 

     1   1                       0                       0                       0
     2   2      1.2445079348883237      1.2445079348883237                    1.76
     3   2                       0                       0                    3.52
     4   2      1.2445079348883237      1.2445079348883237      5.2800000000000002
     5   2                       0      2.4890158697766473                       0
     6   2      1.2445079348883237       3.733523804664971                    1.76
     7   2                       0      2.4890158697766473                    3.52
     8   1      1.2445079348883237       3.733523804664971      5.2800000000000002
     9   2      2.4890158697766473                       0                       0
    10   1       3.733523804664971      1.2445079348883237                    1.76
    11   2      2.4890158697766473                       0                    3.52
    12   1       3.733523804664971      1.2445079348883237      5.2800000000000002
    13   2      2.4890158697766473      2.4890158697766473                       0
    14   1       3.733523804664971       3.733523804664971                    1.76
    15   1      2.4890158697766473      2.4890158697766473                    3.52
    16   1       3.733523804664971       3.733523804664971      5.2800000000000002
