LMP/Ternary/lammps-data/Ni20Fe60Cr20_7.lmp (written by ASE) 

54 	 atoms 
3  atom types
0.0       7.467047609329942  xlo xhi
0.0       7.467047609329942  ylo yhi
0.0                   10.56  zlo zhi
0.0 0.0 0.0 xy xz yz
Masses

1 58.69
2 55.84
3 51.99
Atoms 

     1   1                       0                       0                       0
     2   2      1.2445079348883237      1.2445079348883237                    1.76
     3   2                       0                       0                    3.52
     4   3      1.2445079348883237      1.2445079348883237      5.2800000000000002
     5   1                       0                       0                    7.04
     6   2      1.2445079348883237      1.2445079348883237      8.8000000000000007
     7   2                       0      2.4890158697766473                       0
     8   3      1.2445079348883237       3.733523804664971                    1.76
     9   1                       0      2.4890158697766473                    3.52
    10   2      1.2445079348883237       3.733523804664971      5.2800000000000002
    11   2                       0      2.4890158697766473                    7.04
    12   2      1.2445079348883237       3.733523804664971      8.8000000000000007
    13   2                       0      4.9780317395532947                       0
    14   2      1.2445079348883237      6.2225396744416184                    1.76
    15   3                       0      4.9780317395532947                    3.52
    16   3      1.2445079348883237      6.2225396744416184      5.2800000000000002
    17   2                       0      4.9780317395532947                    7.04
    18   2      1.2445079348883237      6.2225396744416184      8.8000000000000007
    19   2      2.4890158697766473                       0                       0
    20   1       3.733523804664971      1.2445079348883237                    1.76
    21   2      2.4890158697766473                       0                    3.52
    22   2       3.733523804664971      1.2445079348883237      5.2800000000000002
    23   1      2.4890158697766473                       0                    7.04
    24   3       3.733523804664971      1.2445079348883237      8.8000000000000007
    25   2      2.4890158697766473      2.4890158697766473                       0
    26   2       3.733523804664971       3.733523804664971                    1.76
    27   2      2.4890158697766473      2.4890158697766473                    3.52
    28   1       3.733523804664971       3.733523804664971      5.2800000000000002
    29   2      2.4890158697766473      2.4890158697766473                    7.04
    30   3       3.733523804664971       3.733523804664971      8.8000000000000007
    31   3      2.4890158697766473      4.9780317395532947                       0
    32   2       3.733523804664971      6.2225396744416184                    1.76
    33   3      2.4890158697766473      4.9780317395532947                    3.52
    34   2       3.733523804664971      6.2225396744416184      5.2800000000000002
    35   2      2.4890158697766473      4.9780317395532947                    7.04
    36   2       3.733523804664971      6.2225396744416184      8.8000000000000007
    37   2      4.9780317395532947                       0                       0
    38   2      6.2225396744416184      1.2445079348883237                    1.76
    39   2      4.9780317395532947                       0                    3.52
    40   2      6.2225396744416184      1.2445079348883237      5.2800000000000002
    41   3      4.9780317395532947                       0                    7.04
    42   3      6.2225396744416184      1.2445079348883237      8.8000000000000007
    43   2      4.9780317395532947      2.4890158697766473                       0
    44   2      6.2225396744416184       3.733523804664971                    1.76
    45   2      4.9780317395532947      2.4890158697766473                    3.52
    46   1      6.2225396744416184       3.733523804664971      5.2800000000000002
    47   3      4.9780317395532947      2.4890158697766473                    7.04
    48   2      6.2225396744416184       3.733523804664971      8.8000000000000007
    49   1      4.9780317395532947      4.9780317395532947                       0
    50   3      6.2225396744416184      6.2225396744416184                    1.76
    51   1      4.9780317395532947      4.9780317395532947                    3.52
    52   2      6.2225396744416184      6.2225396744416184      5.2800000000000002
    53   2      4.9780317395532947      4.9780317395532947                    7.04
    54   1      6.2225396744416184      6.2225396744416184      8.8000000000000007
