LMP/Ternary/lammps-data/Ni40Fe20Cr40_4.lmp (written by ASE) 

54 	 atoms 
3  atom types
0.0       7.467047609329942  xlo xhi
0.0       7.467047609329942  ylo yhi
0.0                   10.56  zlo zhi
0.0 0.0 0.0 xy xz yz
Masses

1 58.69
2 55.84
3 51.99
Atoms 

     1   2                       0                       0                       0
     2   3      1.2445079348883237      1.2445079348883237                    1.76
     3   3                       0                       0                    3.52
     4   1      1.2445079348883237      1.2445079348883237      5.2800000000000002
     5   2                       0                       0                    7.04
     6   3      1.2445079348883237      1.2445079348883237      8.8000000000000007
     7   3                       0      2.4890158697766473                       0
     8   1      1.2445079348883237       3.733523804664971                    1.76
     9   3                       0      2.4890158697766473                    3.52
    10   2      1.2445079348883237       3.733523804664971      5.2800000000000002
    11   1                       0      2.4890158697766473                    7.04
    12   3      1.2445079348883237       3.733523804664971      8.8000000000000007
    13   2                       0      4.9780317395532947                       0
    14   2      1.2445079348883237      6.2225396744416184                    1.76
    15   1                       0      4.9780317395532947                    3.52
    16   3      1.2445079348883237      6.2225396744416184      5.2800000000000002
    17   3                       0      4.9780317395532947                    7.04
    18   1      1.2445079348883237      6.2225396744416184      8.8000000000000007
    19   1      2.4890158697766473                       0                       0
    20   3       3.733523804664971      1.2445079348883237                    1.76
    21   2      2.4890158697766473                       0                    3.52
    22   1       3.733523804664971      1.2445079348883237      5.2800000000000002
    23   2      2.4890158697766473                       0                    7.04
    24   1       3.733523804664971      1.2445079348883237      8.8000000000000007
    25   1      2.4890158697766473      2.4890158697766473                       0
    26   3       3.733523804664971       3.733523804664971                    1.76
    27   1      2.4890158697766473      2.4890158697766473                    3.52
    28   3       3.733523804664971       3.733523804664971      5.2800000000000002
    29   1      2.4890158697766473      2.4890158697766473                    7.04
    30   2       3.733523804664971       3.733523804664971      8.8000000000000007
    31   1      2.4890158697766473      4.9780317395532947                       0
    32   3       3.733523804664971      6.2225396744416184                    1.76
    33   1      2.4890158697766473      4.9780317395532947                    3.52
    34   3       3.733523804664971      6.2225396744416184      5.2800000000000002
    35   3      2.4890158697766473      4.9780317395532947                    7.04
    36   1       3.733523804664971      6.2225396744416184      8.8000000000000007
    37   1      4.9780317395532947                       0                       0
    38   3      6.2225396744416184      1.2445079348883237                    1.76
    39   3      4.9780317395532947                       0                    3.52
    40   3      6.2225396744416184      1.2445079348883237      5.2800000000000002
    41   2      4.9780317395532947                       0                    7.04
    42   1      6.2225396744416184      1.2445079348883237      8.8000000000000007
    43   1      4.9780317395532947      2.4890158697766473                       0
    44   3      6.2225396744416184       3.733523804664971                    1.76
    45   1      4.9780317395532947      2.4890158697766473                    3.52
    46   3      6.2225396744416184       3.733523804664971      5.2800000000000002
    47   3      4.9780317395532947      2.4890158697766473                    7.04
    48   3      6.2225396744416184       3.733523804664971      8.8000000000000007
    49   3      4.9780317395532947      4.9780317395532947                       0
    50   1      6.2225396744416184      6.2225396744416184                    1.76
    51   2      4.9780317395532947      4.9780317395532947                    3.52
    52   1      6.2225396744416184      6.2225396744416184      5.2800000000000002
    53   3      4.9780317395532947      4.9780317395532947                    7.04
    54   1      6.2225396744416184      6.2225396744416184      8.8000000000000007
